  -4.000000      0.0000000E+00
  -3.960000      0.0000000E+00
  -3.920000      0.0000000E+00
  -3.880000      0.0000000E+00
  -3.840000      0.0000000E+00
  -3.800000      0.0000000E+00
  -3.760000      0.0000000E+00
  -3.720000      0.0000000E+00
  -3.680000      0.0000000E+00
  -3.640000      0.0000000E+00
  -3.600000      0.0000000E+00
  -3.560000      0.0000000E+00
  -3.520000      0.0000000E+00
  -3.480000      0.0000000E+00
  -3.440000      0.0000000E+00
  -3.400000      0.0000000E+00
  -3.360000      0.0000000E+00
  -3.320000      0.0000000E+00
  -3.280000      0.0000000E+00
  -3.240000      0.0000000E+00
  -3.200000      0.0000000E+00
  -3.160000      0.0000000E+00
  -3.120000      0.0000000E+00
  -3.080000      0.0000000E+00
  -3.040000      0.0000000E+00
  -3.000000      0.0000000E+00
  -2.960000      0.0000000E+00
  -2.920000      0.0000000E+00
  -2.880000      0.0000000E+00
  -2.840000      0.0000000E+00
  -2.800000      0.0000000E+00
  -2.760000      0.0000000E+00
  -2.720000      0.0000000E+00
  -2.680000      0.0000000E+00
  -2.640000      0.0000000E+00
  -2.600000      0.0000000E+00
  -2.560000      0.0000000E+00
  -2.520000      0.0000000E+00
  -2.480000      0.0000000E+00
  -2.440000      0.0000000E+00
  -2.400000      0.0000000E+00
  -2.360000      0.0000000E+00
  -2.320000      0.0000000E+00
  -2.280000      0.0000000E+00
  -2.240000      0.0000000E+00
  -2.200000      0.0000000E+00
  -2.160000      0.0000000E+00
  -2.120000      0.0000000E+00
  -2.080000      0.0000000E+00
  -2.040000      0.0000000E+00
  -2.000000      0.0000000E+00
  -1.960000      0.0000000E+00
  -1.920000      0.0000000E+00
  -1.880000      0.0000000E+00
  -1.840000      0.0000000E+00
  -1.800000      0.0000000E+00
  -1.760000      0.0000000E+00
  -1.720000      0.0000000E+00
  -1.680000      0.0000000E+00
  -1.640000      0.0000000E+00
  -1.600000      0.0000000E+00
  -1.560000      0.0000000E+00
  -1.520000      0.0000000E+00
  -1.480000      0.0000000E+00
  -1.440000      0.0000000E+00
  -1.400000      0.0000000E+00
  -1.360000      0.0000000E+00
  -1.320000      0.0000000E+00
  -1.280000      0.0000000E+00
  -1.240000      0.0000000E+00
  -1.200000      0.0000000E+00
  -1.160000      0.0000000E+00
  -1.120000      0.0000000E+00
  -1.080000      0.0000000E+00
  -1.040000      0.0000000E+00
  -1.000000      0.0000000E+00
 -0.9600000      0.0000000E+00
 -0.9200000      0.0000000E+00
 -0.8800000      0.0000000E+00
 -0.8400000      0.0000000E+00
 -0.8000000      0.0000000E+00
 -0.7600000      0.0000000E+00
 -0.7200000      0.0000000E+00
 -0.6800000      0.0000000E+00
 -0.6400000      0.0000000E+00
 -0.6000000      0.0000000E+00
 -0.5600000      0.0000000E+00
 -0.5200000      0.0000000E+00
 -0.4800000      0.0000000E+00
 -0.4400000      0.0000000E+00
 -0.4000000      0.0000000E+00
 -0.3600000      0.0000000E+00
 -0.3200000      0.0000000E+00
 -0.2800000      0.0000000E+00
 -0.2400000      0.0000000E+00
 -0.2000000      0.0000000E+00
 -0.1600000      0.0000000E+00
 -0.1200000      0.0000000E+00
 -7.9999998E-02  0.0000000E+00
 -3.9999999E-02  0.0000000E+00
  8.3266727E-17  0.0000000E+00
  3.9999999E-02  0.0000000E+00
  7.9999998E-02  0.0000000E+00
  0.1200000      0.0000000E+00
  0.1600000      0.0000000E+00
  0.2000000      0.0000000E+00
  0.2400000      0.0000000E+00
  0.2800000      0.0000000E+00
  0.3200000      0.0000000E+00
  0.3600000      0.0000000E+00
  0.4000000      0.0000000E+00
  0.4400000      0.0000000E+00
  0.4800000      0.0000000E+00
  0.5200000      0.0000000E+00
  0.5600000      0.0000000E+00
  0.6000000      0.0000000E+00
  0.6400000      0.0000000E+00
  0.6800000      0.0000000E+00
  0.7200000      0.0000000E+00
  0.7600000      0.0000000E+00
  0.8000000      0.0000000E+00
  0.8400000      0.0000000E+00
  0.8800000      0.0000000E+00
  0.9200000      0.0000000E+00
  0.9600000      0.0000000E+00
   1.000000      0.0000000E+00
   1.040000      0.0000000E+00
   1.080000      0.0000000E+00
   1.120000      0.0000000E+00
   1.160000      0.0000000E+00
   1.200000      0.0000000E+00
   1.240000      0.0000000E+00
   1.280000      0.0000000E+00
   1.320000      0.0000000E+00
   1.360000      0.0000000E+00
   1.400000      0.0000000E+00
   1.440000      0.0000000E+00
   1.480000      0.0000000E+00
   1.520000      0.0000000E+00
   1.560000      0.0000000E+00
   1.600000      0.0000000E+00
   1.640000      0.0000000E+00
   1.680000      0.0000000E+00
   1.720000      0.0000000E+00
   1.760000      0.0000000E+00
   1.800000      0.0000000E+00
   1.840000      0.0000000E+00
   1.880000      0.0000000E+00
   1.920000      0.0000000E+00
   1.960000      0.0000000E+00
   2.000000      0.0000000E+00
   2.040000      0.0000000E+00
   2.080000      0.0000000E+00
   2.120000      0.0000000E+00
   2.160000      0.0000000E+00
   2.200000      0.0000000E+00
   2.240000      0.0000000E+00
   2.280000      0.0000000E+00
   2.320000      0.0000000E+00
   2.360000      0.0000000E+00
   2.400000      0.0000000E+00
   2.440000      0.0000000E+00
   2.480000      0.0000000E+00
   2.520000      0.0000000E+00
   2.560000      0.0000000E+00
   2.600000      0.0000000E+00
   2.640000      0.0000000E+00
   2.680000      0.0000000E+00
   2.720000      0.0000000E+00
   2.760000      0.0000000E+00
   2.800000      0.0000000E+00
   2.840000      0.0000000E+00
   2.880000      0.0000000E+00
   2.920000      0.0000000E+00
   2.960000      0.0000000E+00
   3.000000      0.0000000E+00
   3.040000      0.0000000E+00
   3.080000      0.0000000E+00
   3.120000      0.0000000E+00
   3.160000      0.0000000E+00
   3.200000      0.0000000E+00
   3.240000      0.0000000E+00
   3.280000      0.0000000E+00
   3.320000      0.0000000E+00
   3.360000      0.0000000E+00
   3.400000      0.0000000E+00
   3.440000      0.0000000E+00
   3.480000      0.0000000E+00
   3.520000      0.0000000E+00
   3.560000      0.0000000E+00
   3.600000      0.0000000E+00
   3.640000      0.0000000E+00
   3.680000      0.0000000E+00
   3.720000      0.0000000E+00
   3.760000      0.0000000E+00
   3.800000      0.0000000E+00
   3.840000      0.0000000E+00
   3.880000      0.0000000E+00
   3.920000      0.0000000E+00
   3.960000      0.0000000E+00
   4.000000      0.0000000E+00
   4.040000      0.0000000E+00
   4.080000      0.0000000E+00
   4.120000      0.0000000E+00
   4.160000      0.0000000E+00
   4.200000      0.0000000E+00
   4.240000      0.0000000E+00
   4.280000      0.0000000E+00
   4.320000      0.0000000E+00
   4.360000      0.0000000E+00
   4.400000      0.0000000E+00
   4.440000      0.0000000E+00
   4.480000      0.0000000E+00
   4.520000      0.0000000E+00
   4.560000      0.0000000E+00
   4.600000      0.0000000E+00
   4.640000      0.0000000E+00
   4.680000      0.0000000E+00
   4.720000      0.0000000E+00
   4.760000      0.0000000E+00
   4.800000      0.0000000E+00
   4.840000      0.0000000E+00
   4.880000      0.0000000E+00
   4.920000      0.0000000E+00
   4.960000      0.0000000E+00
   5.000000      0.0000000E+00
   5.040000      0.0000000E+00
   5.080000      0.0000000E+00
   5.120000      0.0000000E+00
   5.160000      0.0000000E+00
   5.200000      0.0000000E+00
   5.240000      0.0000000E+00
   5.280000      0.0000000E+00
   5.320000      0.0000000E+00
   5.360000      0.0000000E+00
   5.400000      0.0000000E+00
   5.440000      0.0000000E+00
   5.480000      0.0000000E+00
   5.520000      0.0000000E+00
   5.560000      0.0000000E+00
   5.600000      0.0000000E+00
   5.640000      0.0000000E+00
   5.680000      0.0000000E+00
   5.720000      0.0000000E+00
   5.760000      0.0000000E+00
   5.800000      0.0000000E+00
   5.840000      0.0000000E+00
   5.880000      0.0000000E+00
   5.920000      0.0000000E+00
   5.960000      0.0000000E+00
   6.000000      0.0000000E+00
   6.040000      0.0000000E+00
   6.080000      0.0000000E+00
   6.120000      0.0000000E+00
   6.160000      0.0000000E+00
   6.200000      0.0000000E+00
   6.240000      0.0000000E+00
   6.280000      0.0000000E+00
   6.320000      0.0000000E+00
   6.360000      0.0000000E+00
   6.400000      0.0000000E+00
   6.440000      0.0000000E+00
   6.480000      0.0000000E+00
   6.520000      0.0000000E+00
   6.560000      0.0000000E+00
   6.600000      0.0000000E+00
   6.640000      0.0000000E+00
   6.680000      0.0000000E+00
   6.720000      0.0000000E+00
   6.760000      0.0000000E+00
   6.800000      0.0000000E+00
   6.840000      0.0000000E+00
   6.880000      0.0000000E+00
   6.920000      0.0000000E+00
   6.960000      0.0000000E+00
   7.000000      0.0000000E+00
   7.040000      0.0000000E+00
   7.080000      0.0000000E+00
   7.120000      0.0000000E+00
   7.160000      0.0000000E+00
   7.200000      0.0000000E+00
   7.240000      0.0000000E+00
   7.280000      0.0000000E+00
   7.320000      0.0000000E+00
   7.360000      0.0000000E+00
   7.400000      0.0000000E+00
   7.440000      0.0000000E+00
   7.480000      0.0000000E+00
   7.520000      0.0000000E+00
   7.560000      0.0000000E+00
   7.600000      0.0000000E+00
   7.640000      0.0000000E+00
   7.680000      0.0000000E+00
   7.720000      0.0000000E+00
   7.760000      0.0000000E+00
   7.800000      0.0000000E+00
   7.840000      0.0000000E+00
   7.880000      0.0000000E+00
   7.920000      0.0000000E+00
   7.960000      0.0000000E+00
   8.000000      0.0000000E+00
   8.040000      0.0000000E+00
   8.080000      0.0000000E+00
   8.120000      0.0000000E+00
   8.160000      0.0000000E+00
   8.200000      0.0000000E+00
   8.240000      0.0000000E+00
   8.280000      0.0000000E+00
   8.320000      0.0000000E+00
   8.360000      0.0000000E+00
   8.400000      0.0000000E+00
   8.440000      0.0000000E+00
   8.480000      0.0000000E+00
   8.520000      0.0000000E+00
   8.560000      0.0000000E+00
   8.600000      0.0000000E+00
   8.640000      0.0000000E+00
   8.680000      0.0000000E+00
   8.720000      0.0000000E+00
   8.760000      0.0000000E+00
   8.800000      0.0000000E+00
   8.840000      0.0000000E+00
   8.880000      0.0000000E+00
   8.920000      0.0000000E+00
   8.960000      0.0000000E+00
   9.000000      0.0000000E+00
   9.040000      0.0000000E+00
   9.080000      0.0000000E+00
   9.120000      0.0000000E+00
   9.160000      0.0000000E+00
   9.200000      0.0000000E+00
   9.240000      0.0000000E+00
   9.280000      0.0000000E+00
   9.320000      0.0000000E+00
   9.360000      0.0000000E+00
   9.400000      0.0000000E+00
   9.440000      0.0000000E+00
   9.480000      0.0000000E+00
   9.520000      0.0000000E+00
   9.560000      0.0000000E+00
   9.600000      0.0000000E+00
   9.640000      0.0000000E+00
   9.680000      0.0000000E+00
   9.720000      0.0000000E+00
   9.760000      0.0000000E+00
   9.800000      0.0000000E+00
   9.840000      0.0000000E+00
   9.880000      0.0000000E+00
   9.920000      0.0000000E+00
   9.960000      0.0000000E+00
   10.00000      0.0000000E+00
   10.04000      0.0000000E+00
   10.08000      0.0000000E+00
   10.12000      0.0000000E+00
   10.16000      0.0000000E+00
   10.20000      0.0000000E+00
   10.24000      0.0000000E+00
   10.28000      0.0000000E+00
   10.32000      0.0000000E+00
   10.36000      0.0000000E+00
   10.40000      0.0000000E+00
   10.44000      0.0000000E+00
   10.48000      0.0000000E+00
   10.52000      0.0000000E+00
   10.56000      0.0000000E+00
   10.60000      0.0000000E+00
   10.64000      0.0000000E+00
   10.68000      0.0000000E+00
   10.72000      0.0000000E+00
   10.76000      0.0000000E+00
   10.80000      0.0000000E+00
   10.84000      0.0000000E+00
   10.88000      0.0000000E+00
   10.92000      0.0000000E+00
   10.96000      0.0000000E+00
   11.00000      0.0000000E+00
   11.04000      0.0000000E+00
   11.08000      0.0000000E+00
   11.12000      0.0000000E+00
   11.16000      0.0000000E+00
   11.20000      0.0000000E+00
   11.24000      0.0000000E+00
   11.28000      0.0000000E+00
   11.32000      0.0000000E+00
   11.36000      0.0000000E+00
   11.40000      0.0000000E+00
   11.44000      0.0000000E+00
   11.48000      0.0000000E+00
   11.52000      0.0000000E+00
   11.56000      0.0000000E+00
   11.60000      0.0000000E+00
   11.64000      0.0000000E+00
   11.68000      0.0000000E+00
   11.72000      0.0000000E+00
   11.76000      0.0000000E+00
   11.80000      0.0000000E+00
   11.84000      0.0000000E+00
   11.88000      0.0000000E+00
   11.92000      0.0000000E+00
   11.96000      0.0000000E+00
   12.00000      0.0000000E+00
   12.04000      0.0000000E+00
   12.08000      0.0000000E+00
   12.12000      0.0000000E+00
   12.16000      0.0000000E+00
   12.20000      0.0000000E+00
   12.24000      0.0000000E+00
   12.28000      0.0000000E+00
   12.32000      0.0000000E+00
   12.36000      0.0000000E+00
   12.40000      0.0000000E+00
   12.44000      0.0000000E+00
   12.48000      0.0000000E+00
   12.52000      0.0000000E+00
   12.56000      0.0000000E+00
   12.60000      0.0000000E+00
   12.64000      0.0000000E+00
   12.68000      0.0000000E+00
   12.72000      0.0000000E+00
   12.76000      0.0000000E+00
   12.80000      0.0000000E+00
   12.84000      0.0000000E+00
   12.88000      0.0000000E+00
   12.92000      0.0000000E+00
   12.96000      0.0000000E+00
   13.00000      0.0000000E+00
   13.04000      0.0000000E+00
   13.08000      0.0000000E+00
   13.12000      0.0000000E+00
   13.16000      0.0000000E+00
   13.20000      0.0000000E+00
   13.24000      0.0000000E+00
   13.28000      0.0000000E+00
   13.32000      0.0000000E+00
   13.36000      0.0000000E+00
   13.40000      0.0000000E+00
   13.44000      0.0000000E+00
   13.48000      0.0000000E+00
   13.52000      0.0000000E+00
   13.56000      0.0000000E+00
   13.60000      0.0000000E+00
   13.64000      0.0000000E+00
   13.68000      0.0000000E+00
   13.72000      0.0000000E+00
   13.76000      0.0000000E+00
   13.80000      0.0000000E+00
   13.84000      0.0000000E+00
   13.88000      0.0000000E+00
   13.92000      0.0000000E+00
   13.96000      0.0000000E+00
   14.00000      0.0000000E+00
   14.04000      0.0000000E+00
   14.08000      0.0000000E+00
   14.12000      0.0000000E+00
   14.16000      0.0000000E+00
   14.20000      0.0000000E+00
   14.24000      0.0000000E+00
   14.28000      0.0000000E+00
   14.32000      0.0000000E+00
   14.36000      0.0000000E+00
   14.40000      0.0000000E+00
   14.44000      0.0000000E+00
   14.48000      0.0000000E+00
   14.52000      0.0000000E+00
   14.56000      0.0000000E+00
   14.60000      0.0000000E+00
   14.64000      0.0000000E+00
   14.68000      0.0000000E+00
   14.72000      0.0000000E+00
   14.76000      0.0000000E+00
   14.80000      0.0000000E+00
   14.84000      0.0000000E+00
   14.88000      0.0000000E+00
   14.92000      0.0000000E+00
   14.96000      0.0000000E+00
   15.00000      0.0000000E+00
   15.04000      0.0000000E+00
   15.08000      0.0000000E+00
   15.12000      0.0000000E+00
   15.16000      0.0000000E+00
   15.20000      0.0000000E+00
   15.24000      0.0000000E+00
   15.28000      0.0000000E+00
   15.32000      0.0000000E+00
   15.36000      0.0000000E+00
   15.40000      0.0000000E+00
   15.44000      0.0000000E+00
   15.48000      0.0000000E+00
   15.52000      0.0000000E+00
   15.56000      0.0000000E+00
   15.60000      0.0000000E+00
   15.64000      0.0000000E+00
   15.68000      0.0000000E+00
   15.72000      0.0000000E+00
   15.76000      0.0000000E+00
   15.80000      0.0000000E+00
   15.84000      0.0000000E+00
   15.88000      0.0000000E+00
   15.92000      0.0000000E+00
   15.96000      0.0000000E+00
   16.00000      0.0000000E+00
   16.04000      0.0000000E+00
   16.08000      0.0000000E+00
   16.12000      0.0000000E+00
   16.16000      0.0000000E+00
   16.20000      0.0000000E+00
   16.24000      0.0000000E+00
   16.28000      0.0000000E+00
   16.32000      0.0000000E+00
   16.36000      0.0000000E+00
   16.40000      0.0000000E+00
   16.44000      0.0000000E+00
   16.48000      0.0000000E+00
   16.52000      0.0000000E+00
   16.56000      0.0000000E+00
   16.60000      0.0000000E+00
   16.64000      0.0000000E+00
   16.68000      0.0000000E+00
   16.72000      0.0000000E+00
   16.76000      0.0000000E+00
   16.80000      0.0000000E+00
   16.84000      0.0000000E+00
   16.88000      0.0000000E+00
   16.92000      0.0000000E+00
   16.96000      0.0000000E+00
   17.00000      0.0000000E+00
   17.04000      0.0000000E+00
   17.08000      0.0000000E+00
   17.12000      0.0000000E+00
   17.16000      0.0000000E+00
   17.20000      0.0000000E+00
   17.24000      0.0000000E+00
   17.28000      0.0000000E+00
   17.32000      0.0000000E+00
   17.36000      0.0000000E+00
   17.40000      0.0000000E+00
   17.44000      0.0000000E+00
   17.48000      0.0000000E+00
   17.52000      0.0000000E+00
   17.56000      0.0000000E+00
   17.60000      0.0000000E+00
   17.64000      0.0000000E+00
   17.68000      0.0000000E+00
   17.72000      0.0000000E+00
   17.76000      0.0000000E+00
   17.80000      0.0000000E+00
   17.84000      0.0000000E+00
   17.88000      0.0000000E+00
   17.92000      0.0000000E+00
   17.96000      0.0000000E+00
   18.00000      0.0000000E+00
   18.04000      0.0000000E+00
   18.08000      0.0000000E+00
   18.12000      0.0000000E+00
   18.16000      0.0000000E+00
   18.20000      0.0000000E+00
   18.24000      0.0000000E+00
   18.28000      0.0000000E+00
   18.32000      0.0000000E+00
   18.36000      0.0000000E+00
   18.40000      0.0000000E+00
   18.44000      0.0000000E+00
   18.48000      0.0000000E+00
   18.52000      0.0000000E+00
   18.56000      0.0000000E+00
   18.60000      0.0000000E+00
   18.64000      0.0000000E+00
   18.68000      0.0000000E+00
   18.72000      0.0000000E+00
   18.76000      0.0000000E+00
   18.80000      0.0000000E+00
   18.84000      0.0000000E+00
   18.88000      0.0000000E+00
   18.92000      0.0000000E+00
   18.96000      0.0000000E+00
   19.00000      0.0000000E+00
   19.04000      0.0000000E+00
   19.08000      0.0000000E+00
   19.12000      0.0000000E+00
   19.16000      0.0000000E+00
   19.20000      0.0000000E+00
   19.24000      0.0000000E+00
   19.28000      0.0000000E+00
   19.32000      0.0000000E+00
   19.36000      0.0000000E+00
   19.40000      0.0000000E+00
   19.44000      0.0000000E+00
   19.48000      0.0000000E+00
   19.52000      0.0000000E+00
   19.56000      0.0000000E+00
   19.60000      0.0000000E+00
   19.64000      0.0000000E+00
   19.68000      0.0000000E+00
   19.72000      0.0000000E+00
   19.76000      0.0000000E+00
   19.80000      0.0000000E+00
   19.84000      0.0000000E+00
   19.88000      0.0000000E+00
   19.92000      0.0000000E+00
   19.96000      0.0000000E+00
   20.00000      0.0000000E+00
   20.04000      0.0000000E+00
   20.08000      0.0000000E+00
   20.12000      0.0000000E+00
   20.16000      0.0000000E+00
   20.20000      0.0000000E+00
   20.24000      0.0000000E+00
   20.28000      0.0000000E+00
   20.32000      0.0000000E+00
   20.36000      0.0000000E+00
   20.40000      0.0000000E+00
   20.44000      0.0000000E+00
   20.48000      0.0000000E+00
   20.52000      0.0000000E+00
   20.56000      0.0000000E+00
   20.60000      0.0000000E+00
   20.64000      0.0000000E+00
   20.68000      0.0000000E+00
   20.72000      0.0000000E+00
   20.76000      0.0000000E+00
   20.80000      0.0000000E+00
   20.84000      0.0000000E+00
   20.88000      0.0000000E+00
   20.92000      0.0000000E+00
   20.96000      0.0000000E+00
   21.00000      0.0000000E+00
   21.04000      0.0000000E+00
   21.08000      0.0000000E+00
   21.12000      0.0000000E+00
   21.16000      0.0000000E+00
   21.20000      0.0000000E+00
   21.24000      0.0000000E+00
   21.28000      0.0000000E+00
   21.32000      0.0000000E+00
   21.36000      0.0000000E+00
   21.40000      0.0000000E+00
   21.44000      0.0000000E+00
   21.48000      0.0000000E+00
   21.52000      0.0000000E+00
   21.56000      0.0000000E+00
   21.60000      0.0000000E+00
   21.64000      0.0000000E+00
   21.68000      0.0000000E+00
   21.72000      0.0000000E+00
   21.76000      0.0000000E+00
   21.80000      0.0000000E+00
   21.84000      0.0000000E+00
   21.88000      0.0000000E+00
   21.92000      0.0000000E+00
   21.96000      0.0000000E+00
   22.00000      0.0000000E+00
   22.04000      0.0000000E+00
   22.08000      0.0000000E+00
   22.12000      0.0000000E+00
   22.16000      0.0000000E+00
   22.20000      0.0000000E+00
   22.24000      0.0000000E+00
   22.28000      0.0000000E+00
   22.32000      0.0000000E+00
   22.36000      0.0000000E+00
   22.40000      0.0000000E+00
   22.44000      0.0000000E+00
   22.48000      0.0000000E+00
   22.52000      0.0000000E+00
   22.56000      0.0000000E+00
   22.60000      0.0000000E+00
   22.64000      0.0000000E+00
   22.68000      0.0000000E+00
   22.72000      0.0000000E+00
   22.76000      0.0000000E+00
   22.80000      0.0000000E+00
   22.84000      0.0000000E+00
   22.88000      0.0000000E+00
   22.92000      0.0000000E+00
   22.96000      0.0000000E+00
   23.00000      0.0000000E+00
   23.04000      0.0000000E+00
   23.08000      0.0000000E+00
   23.12000      0.0000000E+00
   23.16000      0.0000000E+00
   23.20000      0.0000000E+00
   23.24000      0.0000000E+00
   23.28000      0.0000000E+00
   23.32000      0.0000000E+00
   23.36000      0.0000000E+00
   23.40000      0.0000000E+00
   23.44000      0.0000000E+00
   23.48000      0.0000000E+00
   23.52000      0.0000000E+00
   23.56000      0.0000000E+00
   23.60000      0.0000000E+00
   23.64000      0.0000000E+00
   23.68000      0.0000000E+00
   23.72000      0.0000000E+00
   23.76000      0.0000000E+00
   23.80000      0.0000000E+00
   23.84000      0.0000000E+00
   23.88000      0.0000000E+00
   23.92000      0.0000000E+00
   23.96000      0.0000000E+00
   24.00000      0.0000000E+00
   24.04000      0.0000000E+00
   24.08000      0.0000000E+00
   24.12000      0.0000000E+00
   24.16000      0.0000000E+00
   24.20000      0.0000000E+00
   24.24000      0.0000000E+00
   24.28000      0.0000000E+00
   24.32000      0.0000000E+00
   24.36000      0.0000000E+00
   24.40000      0.0000000E+00
   24.44000      0.0000000E+00
   24.48000      0.0000000E+00
   24.52000      0.0000000E+00
   24.56000      0.0000000E+00
   24.60000      0.0000000E+00
   24.64000      0.0000000E+00
   24.68000      0.0000000E+00
   24.72000      0.0000000E+00
   24.76000      0.0000000E+00
   24.80000      0.0000000E+00
   24.84000      0.0000000E+00
   24.88000      0.0000000E+00
   24.92000      0.0000000E+00
   24.96000      0.0000000E+00
   25.00000      0.0000000E+00
   25.04000      0.0000000E+00
   25.08000      0.0000000E+00
   25.12000      0.0000000E+00
   25.16000      0.0000000E+00
   25.20000      0.0000000E+00
   25.24000      0.0000000E+00
   25.28000      0.0000000E+00
   25.32000      0.0000000E+00
   25.36000      0.0000000E+00
   25.40000      0.0000000E+00
   25.44000      0.0000000E+00
   25.48000      0.0000000E+00
   25.52000      0.0000000E+00
   25.56000      0.0000000E+00
   25.60000      0.0000000E+00
   25.64000      0.0000000E+00
   25.68000      0.0000000E+00
   25.72000      0.0000000E+00
   25.76000      0.0000000E+00
   25.80000      0.0000000E+00
   25.84000      2.9457040E-38
   25.88000      8.5049927E-38
   25.92000      1.4180070E-37
   25.96000      1.5764230E-37
   26.00000      1.0693432E-37
   26.04000      0.0000000E+00
   26.08000     -1.1850662E-37
   26.12000     -1.8647683E-37
   26.16000     -1.7364072E-37
   26.20000     -8.5792957E-38
   26.24000      3.2136398E-38
   26.28000      7.7567363E-38
   26.32000      1.2540066E-37
   26.36000      2.5025110E-37
   26.40000      4.4532404E-37
   26.44000      7.8135183E-37
   26.48000      1.0607602E-36
   26.52000      9.7790275E-37
   26.56000      4.5333638E-37
   26.60000     -3.0395998E-37
   26.64000     -1.0118480E-36
   26.68000     -1.0550902E-36
   26.72000     -1.7117298E-37
   26.76000      1.7155091E-36
   26.80000      3.7684215E-36
   26.84000      5.7827933E-36
   26.88000      6.5916592E-36
   26.92000      4.8194615E-36
   26.96000      7.6298509E-37
   27.00000     -4.6090944E-36
   27.04000     -1.0279784E-35
   27.08000     -1.4153537E-35
   27.12000     -1.3968843E-35
   27.16000     -8.9894632E-36
   27.20000      5.0081672E-37
   27.24000      1.3550348E-35
   27.28000      2.5706477E-35
   27.32000      3.3710024E-35
   27.36000      3.3821828E-35
   27.40000      2.4078400E-35
   27.44000      5.5759382E-36
   27.48000     -1.8985555E-35
   27.52000     -4.3140255E-35
   27.56000     -6.0980434E-35
   27.60000     -6.6505843E-35
   27.64000     -5.6766195E-35
   27.68000     -3.1197350E-35
   27.72000      6.4333592E-36
   27.76000      5.0936374E-35
   27.80000      9.2476904E-35
   27.84000      1.2159630E-34
   27.88000      1.2918081E-34
   27.92000      1.0922255E-34
   27.96000      5.9991297E-35
   28.00000     -1.2450085E-35
   28.04000     -9.7295139E-35
   28.08000     -1.7884204E-34
   28.12000     -2.3879660E-34
   28.16000     -2.5951320E-34
   28.20000     -2.2798617E-34
   28.24000     -1.3933751E-34
   28.28000      5.9222510E-37
   28.32000      1.7262660E-34
   28.36000      3.4703064E-34
   28.40000      4.8690689E-34
   28.44000      5.5423177E-34
   28.48000      5.1795500E-34
   28.52000      3.6190284E-34
   28.56000      9.1809363E-35
   28.60000     -2.6120235E-34
   28.64000     -6.4130031E-34
   28.68000     -9.7406449E-34
   28.72000     -1.1776105E-33
   28.76000     -1.1777360E-33
   28.80000     -9.2564624E-34
   28.84000     -4.1417418E-34
   28.88000      3.1044556E-34
   28.92000      1.1450877E-33
   28.96000      1.9376083E-33
   29.00000      2.5072154E-33
   29.04000      2.6764015E-33
   29.08000      2.3102209E-33
   29.12000      1.3561453E-33
   29.16000     -1.2422883E-34
   29.20000     -1.9405384E-33
   29.24000     -3.7834906E-33
   29.28000     -5.2629505E-33
   29.32000     -5.9728315E-33
   29.36000     -5.5751629E-33
   29.40000     -3.8895914E-33
   29.44000     -9.7012291E-34
   29.48000      2.8507336E-33
   29.52000      6.9679316E-33
   29.56000      1.0570505E-32
   29.60000      1.2768477E-32
   29.64000      1.2766246E-32
   29.68000      1.0055315E-32
   29.72000      4.5889217E-33
   29.76000     -3.1031681E-33
   29.80000     -1.1897559E-32
   29.84000     -2.0183047E-32
   29.88000     -2.6093724E-32
   29.92000     -2.7848093E-32
   29.96000     -2.4144958E-32
   30.00000     -1.4545394E-32
   30.04000      2.4351991E-34
   30.08000      1.8264897E-32
   30.12000      3.6449817E-32
   30.16000      5.1020557E-32
   30.20000      5.8132040E-32
   30.24000      5.4667452E-32
   30.28000      3.9052811E-32
   30.32000      1.1922053E-32
   30.36000     -2.3540631E-32
   30.40000     -6.1722687E-32
   30.44000     -9.5242778E-32
   30.48000     -1.1612294E-31
   30.52000     -1.1733448E-31
   30.56000     -9.4470837E-32
   30.60000     -4.7221327E-32
   30.64000      1.9705469E-32
   30.68000      9.6518049E-32
   30.72000      1.6932995E-31
   30.76000      2.2220976E-31
   30.80000      2.4008243E-31
   30.84000      2.1204832E-31
   30.88000      1.3451070E-31
   30.92000      1.3417041E-32
   30.96000     -1.3503548E-31
   31.00000     -2.8568954E-31
   31.04000     -4.0784679E-31
   31.08000     -4.7053191E-31
   31.12000     -4.4887333E-31
   31.16000     -3.3049162E-31
   31.20000     -1.2056411E-31
   31.24000      1.5575531E-31
   31.28000      4.5459254E-31
   31.32000      7.1875165E-31
   31.36000      8.8694923E-31
   31.40000      9.0571473E-31
   31.44000      7.4200269E-31
   31.48000      3.9402775E-31
   31.52000     -1.0227868E-31
   31.56000     -6.7338735E-31
   31.60000     -1.2161160E-30
   31.64000     -1.6132627E-30
   31.68000     -1.7551613E-30
   31.72000     -1.5638133E-30
   31.76000     -1.0150833E-30
   31.80000     -1.5396497E-31
   31.84000      9.0156768E-31
   31.88000      1.9711030E-30
   31.92000      2.8372687E-30
   31.96000      3.2836861E-30
   32.00000      3.1398735E-30
   32.04000      2.3250945E-30
   32.08000      8.8184749E-31
   32.12000     -1.0098939E-30
   32.16000     -3.0442477E-30
   32.20000     -4.8292137E-30
   32.24000     -5.9516885E-30
   32.28000     -6.0589090E-30
   32.32000     -4.9424711E-30
   32.36000     -2.6079736E-30
   32.40000      6.8680938E-31
   32.44000      4.4389477E-30
   32.48000      7.9594201E-30
   32.52000      1.0481528E-29
   32.56000      1.1305210E-29
   32.60000      9.9538943E-30
   32.64000      6.3136272E-30
   32.68000      7.2240377E-31
   32.72000     -6.0179082E-30
   32.76000     -1.2723594E-29
   32.80000     -1.8005092E-29
   32.84000     -2.0517484E-29
   32.88000     -1.9246990E-29
   32.92000     -1.3780498E-29
   32.96000     -4.4991285E-30
   33.00000      7.3580688E-30
   33.04000      1.9796915E-29
   33.08000      3.0346078E-29
   33.12000      3.6484034E-29
   33.16000      3.6153157E-29
   33.20000      2.8269850E-29
   33.24000      1.3124028E-29
   33.28000     -7.4348885E-30
   33.32000     -3.0102493E-29
   33.36000     -5.0544894E-29
   33.40000     -6.4114455E-29
   33.44000     -6.6759250E-29
   33.48000     -5.5972116E-29
   33.52000     -3.1589296E-29
   33.56000      3.7542152E-30
   33.60000      4.4668867E-29
   33.64000      8.3634832E-29
   33.68000      1.1218112E-28
   33.72000      1.2247452E-28
   33.76000      1.0906246E-28
   33.80000      7.0436055E-29
   33.84000      1.0056806E-29
   33.88000     -6.3462190E-29
   33.92000     -1.3721036E-28
   33.96000     -1.9587863E-28
   34.00000     -2.2449829E-28
   34.04000     -2.1160491E-28
   34.08000     -1.5224954E-28
   34.12000     -5.0208013E-29
   34.16000      8.1212271E-29
   34.20000      2.2018680E-28
   34.24000      3.3932883E-28
   34.28000      4.1032515E-28
   34.32000      4.0960173E-28
   34.36000      3.2404010E-28
   34.40000      1.5557937E-28
   34.44000     -7.6440328E-29
   34.48000     -3.3607824E-28
   34.52000     -5.7513815E-28
   34.56000     -7.4080462E-28
   34.60000     -7.8560007E-28
   34.64000     -6.7804579E-28