  -4.000000      0.0000000E+00
  -3.960000      0.0000000E+00
  -3.920000      0.0000000E+00
  -3.880000      0.0000000E+00
  -3.840000      0.0000000E+00
  -3.800000      0.0000000E+00
  -3.760000      0.0000000E+00
  -3.720000      0.0000000E+00
  -3.680000      0.0000000E+00
  -3.640000      0.0000000E+00
  -3.600000      0.0000000E+00
  -3.560000      0.0000000E+00
  -3.520000      0.0000000E+00
  -3.480000      0.0000000E+00
  -3.440000      0.0000000E+00
  -3.400000      0.0000000E+00
  -3.360000      0.0000000E+00
  -3.320000      0.0000000E+00
  -3.280000      0.0000000E+00
  -3.240000      0.0000000E+00
  -3.200000      0.0000000E+00
  -3.160000      0.0000000E+00
  -3.120000      0.0000000E+00
  -3.080000      0.0000000E+00
  -3.040000      0.0000000E+00
  -3.000000      0.0000000E+00
  -2.960000      0.0000000E+00
  -2.920000      0.0000000E+00
  -2.880000      0.0000000E+00
  -2.840000      0.0000000E+00
  -2.800000      0.0000000E+00
  -2.760000      0.0000000E+00
  -2.720000      0.0000000E+00
  -2.680000      0.0000000E+00
  -2.640000      0.0000000E+00
  -2.600000      0.0000000E+00
  -2.560000      0.0000000E+00
  -2.520000      0.0000000E+00
  -2.480000      0.0000000E+00
  -2.440000      0.0000000E+00
  -2.400000      0.0000000E+00
  -2.360000      0.0000000E+00
  -2.320000      0.0000000E+00
  -2.280000      0.0000000E+00
  -2.240000      0.0000000E+00
  -2.200000      0.0000000E+00
  -2.160000      0.0000000E+00
  -2.120000      0.0000000E+00
  -2.080000      0.0000000E+00
  -2.040000      0.0000000E+00
  -2.000000      0.0000000E+00
  -1.960000      0.0000000E+00
  -1.920000      0.0000000E+00
  -1.880000      0.0000000E+00
  -1.840000      0.0000000E+00
  -1.800000      0.0000000E+00
  -1.760000      0.0000000E+00
  -1.720000      0.0000000E+00
  -1.680000      0.0000000E+00
  -1.640000      0.0000000E+00
  -1.600000      0.0000000E+00
  -1.560000      0.0000000E+00
  -1.520000      0.0000000E+00
  -1.480000      0.0000000E+00
  -1.440000      0.0000000E+00
  -1.400000      0.0000000E+00
  -1.360000      0.0000000E+00
  -1.320000      0.0000000E+00
  -1.280000      0.0000000E+00
  -1.240000      0.0000000E+00
  -1.200000      0.0000000E+00
  -1.160000      0.0000000E+00
  -1.120000      0.0000000E+00
  -1.080000      0.0000000E+00
  -1.040000      0.0000000E+00
  -1.000000      0.0000000E+00
 -0.9600000      0.0000000E+00
 -0.9200000      0.0000000E+00
 -0.8800000      0.0000000E+00
 -0.8400000      0.0000000E+00
 -0.8000000      0.0000000E+00
 -0.7600000      0.0000000E+00
 -0.7200000      0.0000000E+00
 -0.6800000      0.0000000E+00
 -0.6400000      0.0000000E+00
 -0.6000000      0.0000000E+00
 -0.5600000      0.0000000E+00
 -0.5200000      0.0000000E+00
 -0.4800000      0.0000000E+00
 -0.4400000      0.0000000E+00
 -0.4000000      0.0000000E+00
 -0.3600000      0.0000000E+00
 -0.3200000      0.0000000E+00
 -0.2800000      0.0000000E+00
 -0.2400000      0.0000000E+00
 -0.2000000      0.0000000E+00
 -0.1600000      0.0000000E+00
 -0.1200000      0.0000000E+00
 -7.9999998E-02  0.0000000E+00
 -3.9999999E-02  0.0000000E+00
  8.3266727E-17  0.0000000E+00
  3.9999999E-02  0.0000000E+00
  7.9999998E-02  0.0000000E+00
  0.1200000      0.0000000E+00
  0.1600000      0.0000000E+00
  0.2000000      0.0000000E+00
  0.2400000      0.0000000E+00
  0.2800000      0.0000000E+00
  0.3200000      0.0000000E+00
  0.3600000      0.0000000E+00
  0.4000000      0.0000000E+00
  0.4400000      0.0000000E+00
  0.4800000      0.0000000E+00
  0.5200000      0.0000000E+00
  0.5600000      0.0000000E+00
  0.6000000      0.0000000E+00
  0.6400000      0.0000000E+00
  0.6800000      0.0000000E+00
  0.7200000      0.0000000E+00
  0.7600000      0.0000000E+00
  0.8000000      0.0000000E+00
  0.8400000      0.0000000E+00
  0.8800000      0.0000000E+00
  0.9200000      0.0000000E+00
  0.9600000      0.0000000E+00
   1.000000      0.0000000E+00
   1.040000      0.0000000E+00
   1.080000      0.0000000E+00
   1.120000      0.0000000E+00
   1.160000      0.0000000E+00
   1.200000      0.0000000E+00
   1.240000      0.0000000E+00
   1.280000      0.0000000E+00
   1.320000      0.0000000E+00
   1.360000      0.0000000E+00
   1.400000      0.0000000E+00
   1.440000      0.0000000E+00
   1.480000      0.0000000E+00
   1.520000      0.0000000E+00
   1.560000      0.0000000E+00
   1.600000      0.0000000E+00
   1.640000      0.0000000E+00
   1.680000      0.0000000E+00
   1.720000      0.0000000E+00
   1.760000      0.0000000E+00
   1.800000      0.0000000E+00
   1.840000      0.0000000E+00
   1.880000      0.0000000E+00
   1.920000      0.0000000E+00
   1.960000      0.0000000E+00
   2.000000      0.0000000E+00
   2.040000      0.0000000E+00
   2.080000      0.0000000E+00
   2.120000      0.0000000E+00
   2.160000      0.0000000E+00
   2.200000      0.0000000E+00
   2.240000      0.0000000E+00
   2.280000      0.0000000E+00
   2.320000      0.0000000E+00
   2.360000      0.0000000E+00
   2.400000      0.0000000E+00
   2.440000      0.0000000E+00
   2.480000      0.0000000E+00
   2.520000      0.0000000E+00
   2.560000      0.0000000E+00
   2.600000      0.0000000E+00
   2.640000      0.0000000E+00
   2.680000      0.0000000E+00
   2.720000      0.0000000E+00
   2.760000      0.0000000E+00
   2.800000      0.0000000E+00
   2.840000      0.0000000E+00
   2.880000      0.0000000E+00
   2.920000      0.0000000E+00
   2.960000      0.0000000E+00
   3.000000      0.0000000E+00
   3.040000      0.0000000E+00
   3.080000      0.0000000E+00
   3.120000      0.0000000E+00
   3.160000      0.0000000E+00
   3.200000      0.0000000E+00
   3.240000      0.0000000E+00
   3.280000      0.0000000E+00
   3.320000      0.0000000E+00
   3.360000      0.0000000E+00
   3.400000      0.0000000E+00
   3.440000      0.0000000E+00
   3.480000      0.0000000E+00
   3.520000      0.0000000E+00
   3.560000      0.0000000E+00
   3.600000      0.0000000E+00
   3.640000      0.0000000E+00
   3.680000      0.0000000E+00
   3.720000      0.0000000E+00
   3.760000      0.0000000E+00
   3.800000      0.0000000E+00
   3.840000      0.0000000E+00
   3.880000      0.0000000E+00
   3.920000      0.0000000E+00
   3.960000      0.0000000E+00
   4.000000      0.0000000E+00
   4.040000      0.0000000E+00
   4.080000      0.0000000E+00
   4.120000      0.0000000E+00
   4.160000      0.0000000E+00
   4.200000      0.0000000E+00
   4.240000      0.0000000E+00
   4.280000      0.0000000E+00
   4.320000      0.0000000E+00
   4.360000      0.0000000E+00
   4.400000      0.0000000E+00
   4.440000      0.0000000E+00
   4.480000      0.0000000E+00
   4.520000      0.0000000E+00
   4.560000      0.0000000E+00
   4.600000      0.0000000E+00
   4.640000      0.0000000E+00
   4.680000      0.0000000E+00
   4.720000      0.0000000E+00
   4.760000      0.0000000E+00
   4.800000      0.0000000E+00
   4.840000      0.0000000E+00
   4.880000      0.0000000E+00
   4.920000      0.0000000E+00
   4.960000      0.0000000E+00
   5.000000      0.0000000E+00
   5.040000      0.0000000E+00
   5.080000      0.0000000E+00
   5.120000      0.0000000E+00
   5.160000      0.0000000E+00
   5.200000      0.0000000E+00
   5.240000      0.0000000E+00
   5.280000      0.0000000E+00
   5.320000      0.0000000E+00
   5.360000      0.0000000E+00
   5.400000      0.0000000E+00
   5.440000      0.0000000E+00
   5.480000      0.0000000E+00
   5.520000      0.0000000E+00
   5.560000      0.0000000E+00
   5.600000      0.0000000E+00
   5.640000      0.0000000E+00
   5.680000      0.0000000E+00
   5.720000      0.0000000E+00
   5.760000      0.0000000E+00
   5.800000      0.0000000E+00
   5.840000      0.0000000E+00
   5.880000      0.0000000E+00
   5.920000      0.0000000E+00
   5.960000      0.0000000E+00
   6.000000      0.0000000E+00
   6.040000      0.0000000E+00
   6.080000      0.0000000E+00
   6.120000      0.0000000E+00
   6.160000      0.0000000E+00
   6.200000      0.0000000E+00
   6.240000      0.0000000E+00
   6.280000      0.0000000E+00
   6.320000      0.0000000E+00
   6.360000      0.0000000E+00
   6.400000      0.0000000E+00
   6.440000      0.0000000E+00
   6.480000      0.0000000E+00
   6.520000      0.0000000E+00
   6.560000      0.0000000E+00
   6.600000      0.0000000E+00
   6.640000      0.0000000E+00
   6.680000      0.0000000E+00
   6.720000      0.0000000E+00
   6.760000      0.0000000E+00
   6.800000      0.0000000E+00
   6.840000      0.0000000E+00
   6.880000      0.0000000E+00
   6.920000      0.0000000E+00
   6.960000      0.0000000E+00
   7.000000      0.0000000E+00
   7.040000      0.0000000E+00
   7.080000      0.0000000E+00
   7.120000      0.0000000E+00
   7.160000      0.0000000E+00
   7.200000      0.0000000E+00
   7.240000      0.0000000E+00
   7.280000      0.0000000E+00
   7.320000      0.0000000E+00
   7.360000      0.0000000E+00
   7.400000      0.0000000E+00
   7.440000      0.0000000E+00
   7.480000      0.0000000E+00
   7.520000      0.0000000E+00
   7.560000      0.0000000E+00
   7.600000      0.0000000E+00
   7.640000      0.0000000E+00
   7.680000      0.0000000E+00
   7.720000      0.0000000E+00
   7.760000      0.0000000E+00
   7.800000      0.0000000E+00
   7.840000      0.0000000E+00
   7.880000      0.0000000E+00
   7.920000      0.0000000E+00
   7.960000      0.0000000E+00
   8.000000      0.0000000E+00
   8.040000      0.0000000E+00
   8.080000      0.0000000E+00
   8.120000      0.0000000E+00
   8.160000      0.0000000E+00
   8.200000      0.0000000E+00
   8.240000      0.0000000E+00
   8.280000      0.0000000E+00
   8.320000      0.0000000E+00
   8.360000      0.0000000E+00
   8.400000      0.0000000E+00
   8.440000      0.0000000E+00
   8.480000      0.0000000E+00
   8.520000      0.0000000E+00
   8.560000      0.0000000E+00
   8.600000      0.0000000E+00
   8.640000      0.0000000E+00
   8.680000      0.0000000E+00
   8.720000      0.0000000E+00
   8.760000      0.0000000E+00
   8.800000      0.0000000E+00
   8.840000      0.0000000E+00
   8.880000      0.0000000E+00
   8.920000      0.0000000E+00
   8.960000      0.0000000E+00
   9.000000      0.0000000E+00
   9.040000      0.0000000E+00
   9.080000      0.0000000E+00
   9.120000      0.0000000E+00
   9.160000      0.0000000E+00
   9.200000      0.0000000E+00
   9.240000      0.0000000E+00
   9.280000      0.0000000E+00
   9.320000      0.0000000E+00
   9.360000      0.0000000E+00
   9.400000      0.0000000E+00
   9.440000      0.0000000E+00
   9.480000      0.0000000E+00
   9.520000      0.0000000E+00
   9.560000      0.0000000E+00
   9.600000      0.0000000E+00
   9.640000      0.0000000E+00
   9.680000      0.0000000E+00
   9.720000      0.0000000E+00
   9.760000      0.0000000E+00
   9.800000      0.0000000E+00
   9.840000      0.0000000E+00
   9.880000      0.0000000E+00
   9.920000      0.0000000E+00
   9.960000      0.0000000E+00
   10.00000      0.0000000E+00
   10.04000      0.0000000E+00
   10.08000      0.0000000E+00
   10.12000      0.0000000E+00
   10.16000      0.0000000E+00
   10.20000      0.0000000E+00
   10.24000      0.0000000E+00
   10.28000      0.0000000E+00
   10.32000      0.0000000E+00
   10.36000      0.0000000E+00
   10.40000      0.0000000E+00
   10.44000      0.0000000E+00
   10.48000      0.0000000E+00
   10.52000      0.0000000E+00
   10.56000      0.0000000E+00
   10.60000      0.0000000E+00
   10.64000      0.0000000E+00
   10.68000      0.0000000E+00
   10.72000      0.0000000E+00
   10.76000      0.0000000E+00
   10.80000      0.0000000E+00
   10.84000      0.0000000E+00
   10.88000      0.0000000E+00
   10.92000      0.0000000E+00
   10.96000      0.0000000E+00
   11.00000      0.0000000E+00
   11.04000      0.0000000E+00
   11.08000      0.0000000E+00
   11.12000      0.0000000E+00
   11.16000      0.0000000E+00
   11.20000      0.0000000E+00
   11.24000      0.0000000E+00
   11.28000      0.0000000E+00
   11.32000      0.0000000E+00
   11.36000      0.0000000E+00
   11.40000      0.0000000E+00
   11.44000      0.0000000E+00
   11.48000      0.0000000E+00
   11.52000      0.0000000E+00
   11.56000      0.0000000E+00
   11.60000      0.0000000E+00
   11.64000      0.0000000E+00
   11.68000      0.0000000E+00
   11.72000      0.0000000E+00
   11.76000      0.0000000E+00
   11.80000      0.0000000E+00
   11.84000      0.0000000E+00
   11.88000      0.0000000E+00
   11.92000      0.0000000E+00
   11.96000      0.0000000E+00
   12.00000      0.0000000E+00
   12.04000      0.0000000E+00
   12.08000      0.0000000E+00
   12.12000      0.0000000E+00
   12.16000      0.0000000E+00
   12.20000      0.0000000E+00
   12.24000      0.0000000E+00
   12.28000      0.0000000E+00
   12.32000      0.0000000E+00
   12.36000      0.0000000E+00
   12.40000      0.0000000E+00
   12.44000      0.0000000E+00
   12.48000      0.0000000E+00
   12.52000      0.0000000E+00
   12.56000      0.0000000E+00
   12.60000      0.0000000E+00
   12.64000      0.0000000E+00
   12.68000      0.0000000E+00
   12.72000      0.0000000E+00
   12.76000      0.0000000E+00
   12.80000      0.0000000E+00
   12.84000      0.0000000E+00
   12.88000      0.0000000E+00
   12.92000      0.0000000E+00
   12.96000      0.0000000E+00
   13.00000      0.0000000E+00
   13.04000      0.0000000E+00
   13.08000      0.0000000E+00
   13.12000      0.0000000E+00
   13.16000      0.0000000E+00
   13.20000      0.0000000E+00
   13.24000      0.0000000E+00
   13.28000      0.0000000E+00
   13.32000      0.0000000E+00
   13.36000      0.0000000E+00
   13.40000      0.0000000E+00
   13.44000      0.0000000E+00
   13.48000      0.0000000E+00
   13.52000      0.0000000E+00
   13.56000      0.0000000E+00
   13.60000      0.0000000E+00
   13.64000      0.0000000E+00
   13.68000      0.0000000E+00
   13.72000      0.0000000E+00
   13.76000      0.0000000E+00
   13.80000      0.0000000E+00
   13.84000      0.0000000E+00
   13.88000      0.0000000E+00
   13.92000      0.0000000E+00
   13.96000      0.0000000E+00
   14.00000      0.0000000E+00
   14.04000      0.0000000E+00
   14.08000      0.0000000E+00
   14.12000      0.0000000E+00
   14.16000      0.0000000E+00
   14.20000      0.0000000E+00
   14.24000      0.0000000E+00
   14.28000      0.0000000E+00
   14.32000      0.0000000E+00
   14.36000      0.0000000E+00
   14.40000      0.0000000E+00
   14.44000      0.0000000E+00
   14.48000      0.0000000E+00
   14.52000      0.0000000E+00
   14.56000      0.0000000E+00
   14.60000      0.0000000E+00
   14.64000      0.0000000E+00
   14.68000      0.0000000E+00
   14.72000      0.0000000E+00
   14.76000      0.0000000E+00
   14.80000      0.0000000E+00
   14.84000      0.0000000E+00
   14.88000      0.0000000E+00
   14.92000      0.0000000E+00
   14.96000      0.0000000E+00
   15.00000      0.0000000E+00
   15.04000      0.0000000E+00
   15.08000      0.0000000E+00
   15.12000      0.0000000E+00
   15.16000      0.0000000E+00
   15.20000      0.0000000E+00
   15.24000      0.0000000E+00
   15.28000      0.0000000E+00
   15.32000      0.0000000E+00
   15.36000      0.0000000E+00
   15.40000      0.0000000E+00
   15.44000      0.0000000E+00
   15.48000      0.0000000E+00
   15.52000      0.0000000E+00
   15.56000      0.0000000E+00
   15.60000      0.0000000E+00
   15.64000      0.0000000E+00
   15.68000      0.0000000E+00
   15.72000      0.0000000E+00
   15.76000      0.0000000E+00
   15.80000      0.0000000E+00
   15.84000      0.0000000E+00
   15.88000      0.0000000E+00
   15.92000      0.0000000E+00
   15.96000      0.0000000E+00
   16.00000      0.0000000E+00
   16.04000      0.0000000E+00
   16.08000      0.0000000E+00
   16.12000      0.0000000E+00
   16.16000      0.0000000E+00
   16.20000      0.0000000E+00
   16.24000      0.0000000E+00
   16.28000      0.0000000E+00
   16.32000      0.0000000E+00
   16.36000      0.0000000E+00
   16.40000      0.0000000E+00
   16.44000      0.0000000E+00
   16.48000      0.0000000E+00
   16.52000      0.0000000E+00
   16.56000      0.0000000E+00
   16.60000      0.0000000E+00
   16.64000      0.0000000E+00
   16.68000      0.0000000E+00
   16.72000      0.0000000E+00
   16.76000      0.0000000E+00
   16.80000      0.0000000E+00
   16.84000      0.0000000E+00
   16.88000      0.0000000E+00
   16.92000      0.0000000E+00
   16.96000      0.0000000E+00
   17.00000      0.0000000E+00
   17.04000      0.0000000E+00
   17.08000      0.0000000E+00
   17.12000      0.0000000E+00
   17.16000      0.0000000E+00
   17.20000      0.0000000E+00
   17.24000      0.0000000E+00
   17.28000      0.0000000E+00
   17.32000      0.0000000E+00
   17.36000      0.0000000E+00
   17.40000      0.0000000E+00
   17.44000      0.0000000E+00
   17.48000      0.0000000E+00
   17.52000      0.0000000E+00
   17.56000      0.0000000E+00
   17.60000      0.0000000E+00
   17.64000      0.0000000E+00
   17.68000      0.0000000E+00
   17.72000      0.0000000E+00
   17.76000      0.0000000E+00
   17.80000      0.0000000E+00
   17.84000      0.0000000E+00
   17.88000      0.0000000E+00
   17.92000      0.0000000E+00
   17.96000      0.0000000E+00
   18.00000      0.0000000E+00
   18.04000      0.0000000E+00
   18.08000      0.0000000E+00
   18.12000      0.0000000E+00
   18.16000      0.0000000E+00
   18.20000      0.0000000E+00
   18.24000      0.0000000E+00
   18.28000      0.0000000E+00
   18.32000      0.0000000E+00
   18.36000      0.0000000E+00
   18.40000      0.0000000E+00
   18.44000      0.0000000E+00
   18.48000      0.0000000E+00
   18.52000      0.0000000E+00
   18.56000      0.0000000E+00
   18.60000      0.0000000E+00
   18.64000      0.0000000E+00
   18.68000      0.0000000E+00
   18.72000      0.0000000E+00
   18.76000      0.0000000E+00
   18.80000      0.0000000E+00
   18.84000      0.0000000E+00
   18.88000      0.0000000E+00
   18.92000      0.0000000E+00
   18.96000      0.0000000E+00
   19.00000      0.0000000E+00
   19.04000      0.0000000E+00
   19.08000      0.0000000E+00
   19.12000      0.0000000E+00
   19.16000      0.0000000E+00
   19.20000      0.0000000E+00
   19.24000      0.0000000E+00
   19.28000      0.0000000E+00
   19.32000      0.0000000E+00
   19.36000      0.0000000E+00
   19.40000      0.0000000E+00
   19.44000      0.0000000E+00
   19.48000      0.0000000E+00
   19.52000      0.0000000E+00
   19.56000      0.0000000E+00
   19.60000      0.0000000E+00
   19.64000      0.0000000E+00
   19.68000      0.0000000E+00
   19.72000      0.0000000E+00
   19.76000      0.0000000E+00
   19.80000      0.0000000E+00
   19.84000      0.0000000E+00
   19.88000      0.0000000E+00
   19.92000      0.0000000E+00
   19.96000      0.0000000E+00
   20.00000      0.0000000E+00
   20.04000      0.0000000E+00
   20.08000      0.0000000E+00
   20.12000      0.0000000E+00
   20.16000      0.0000000E+00
   20.20000      0.0000000E+00
   20.24000      0.0000000E+00
   20.28000      0.0000000E+00
   20.32000      0.0000000E+00
   20.36000      0.0000000E+00
   20.40000      0.0000000E+00
   20.44000      0.0000000E+00
   20.48000      0.0000000E+00
   20.52000      0.0000000E+00
   20.56000      0.0000000E+00
   20.60000      0.0000000E+00
   20.64000      0.0000000E+00
   20.68000      0.0000000E+00
   20.72000      0.0000000E+00
   20.76000      0.0000000E+00
   20.80000      0.0000000E+00
   20.84000      0.0000000E+00
   20.88000      0.0000000E+00
   20.92000      0.0000000E+00
   20.96000      0.0000000E+00
   21.00000      0.0000000E+00
   21.04000      0.0000000E+00
   21.08000      0.0000000E+00
   21.12000      0.0000000E+00
   21.16000      0.0000000E+00
   21.20000      0.0000000E+00
   21.24000      0.0000000E+00
   21.28000      0.0000000E+00
   21.32000      0.0000000E+00
   21.36000      0.0000000E+00
   21.40000      0.0000000E+00
   21.44000      0.0000000E+00
   21.48000      0.0000000E+00
   21.52000      0.0000000E+00
   21.56000      0.0000000E+00
   21.60000      0.0000000E+00
   21.64000      0.0000000E+00
   21.68000      0.0000000E+00
   21.72000      0.0000000E+00
   21.76000      0.0000000E+00
   21.80000      0.0000000E+00
   21.84000      0.0000000E+00
   21.88000      0.0000000E+00
   21.92000      0.0000000E+00
   21.96000      0.0000000E+00
   22.00000      0.0000000E+00
   22.04000      0.0000000E+00
   22.08000      0.0000000E+00
   22.12000      0.0000000E+00
   22.16000      0.0000000E+00
   22.20000      0.0000000E+00
   22.24000      0.0000000E+00
   22.28000      0.0000000E+00
   22.32000      0.0000000E+00
   22.36000      0.0000000E+00
   22.40000      0.0000000E+00
   22.44000      0.0000000E+00
   22.48000      0.0000000E+00
   22.52000      0.0000000E+00
   22.56000      0.0000000E+00
   22.60000      0.0000000E+00
   22.64000      0.0000000E+00
   22.68000      0.0000000E+00
   22.72000      0.0000000E+00
   22.76000      0.0000000E+00
   22.80000      0.0000000E+00
   22.84000      0.0000000E+00
   22.88000      0.0000000E+00
   22.92000      0.0000000E+00
   22.96000      0.0000000E+00
   23.00000      0.0000000E+00
   23.04000      0.0000000E+00
   23.08000      0.0000000E+00
   23.12000      0.0000000E+00
   23.16000      0.0000000E+00
   23.20000      0.0000000E+00
   23.24000      0.0000000E+00
   23.28000      0.0000000E+00
   23.32000      0.0000000E+00
   23.36000      0.0000000E+00
   23.40000      0.0000000E+00
   23.44000      0.0000000E+00
   23.48000      0.0000000E+00
   23.52000      0.0000000E+00
   23.56000      0.0000000E+00
   23.60000      0.0000000E+00
   23.64000      0.0000000E+00
   23.68000      0.0000000E+00
   23.72000      0.0000000E+00
   23.76000      0.0000000E+00
   23.80000      0.0000000E+00
   23.84000      0.0000000E+00
   23.88000      0.0000000E+00
   23.92000      0.0000000E+00
   23.96000      0.0000000E+00
   24.00000      0.0000000E+00
   24.04000      0.0000000E+00
   24.08000      0.0000000E+00
   24.12000      0.0000000E+00
   24.16000      0.0000000E+00
   24.20000      0.0000000E+00
   24.24000      0.0000000E+00
   24.28000      0.0000000E+00
   24.32000      0.0000000E+00
   24.36000      0.0000000E+00
   24.40000      0.0000000E+00
   24.44000      0.0000000E+00
   24.48000      0.0000000E+00
   24.52000      0.0000000E+00
   24.56000      0.0000000E+00
   24.60000      0.0000000E+00
   24.64000      0.0000000E+00
   24.68000      0.0000000E+00
   24.72000      0.0000000E+00
   24.76000      0.0000000E+00
   24.80000      0.0000000E+00
   24.84000      0.0000000E+00
   24.88000      0.0000000E+00
   24.92000      0.0000000E+00
   24.96000      0.0000000E+00
   25.00000      0.0000000E+00
   25.04000      0.0000000E+00
   25.08000      0.0000000E+00
   25.12000      0.0000000E+00
   25.16000      0.0000000E+00
   25.20000      0.0000000E+00
   25.24000      0.0000000E+00
   25.28000      0.0000000E+00
   25.32000      0.0000000E+00
   25.36000      0.0000000E+00
   25.40000      0.0000000E+00
   25.44000      0.0000000E+00
   25.48000      0.0000000E+00
   25.52000      0.0000000E+00
   25.56000      0.0000000E+00
   25.60000      0.0000000E+00
   25.64000      0.0000000E+00
   25.68000      0.0000000E+00
   25.72000      0.0000000E+00
   25.76000      0.0000000E+00
   25.80000      0.0000000E+00
   25.84000      0.0000000E+00
   25.88000      0.0000000E+00
   25.92000      0.0000000E+00
   25.96000      0.0000000E+00
   26.00000      0.0000000E+00
   26.04000      0.0000000E+00
   26.08000      0.0000000E+00
   26.12000      0.0000000E+00
   26.16000      0.0000000E+00
   26.20000      0.0000000E+00
   26.24000      0.0000000E+00
   26.28000      0.0000000E+00
   26.32000      0.0000000E+00
   26.36000      0.0000000E+00
   26.40000      0.0000000E+00
   26.44000      0.0000000E+00
   26.48000      0.0000000E+00
   26.52000      0.0000000E+00
   26.56000      0.0000000E+00
   26.60000      0.0000000E+00
   26.64000      0.0000000E+00
   26.68000      0.0000000E+00
   26.72000      0.0000000E+00
   26.76000      0.0000000E+00
   26.80000      0.0000000E+00
   26.84000      0.0000000E+00
   26.88000      0.0000000E+00
   26.92000      0.0000000E+00
   26.96000      0.0000000E+00
   27.00000      0.0000000E+00
   27.04000      0.0000000E+00
   27.08000      0.0000000E+00
   27.12000      0.0000000E+00
   27.16000      0.0000000E+00
   27.20000      0.0000000E+00
   27.24000      0.0000000E+00
   27.28000      0.0000000E+00
   27.32000      0.0000000E+00
   27.36000      0.0000000E+00
   27.40000      0.0000000E+00
   27.44000      0.0000000E+00
   27.48000      0.0000000E+00
   27.52000      0.0000000E+00
   27.56000      0.0000000E+00
   27.60000      0.0000000E+00
   27.64000      0.0000000E+00
   27.68000      0.0000000E+00
   27.72000      0.0000000E+00
   27.76000      0.0000000E+00
   27.80000      0.0000000E+00
   27.84000      0.0000000E+00
   27.88000      0.0000000E+00
   27.92000      0.0000000E+00
   27.96000      0.0000000E+00
   28.00000      0.0000000E+00
   28.04000      0.0000000E+00
   28.08000      0.0000000E+00
   28.12000      0.0000000E+00
   28.16000      0.0000000E+00
   28.20000      0.0000000E+00
   28.24000      0.0000000E+00
   28.28000      0.0000000E+00
   28.32000      0.0000000E+00
   28.36000      0.0000000E+00
   28.40000      0.0000000E+00
   28.44000      0.0000000E+00
   28.48000      0.0000000E+00
   28.52000      0.0000000E+00
   28.56000      0.0000000E+00
   28.60000      0.0000000E+00
   28.64000      0.0000000E+00
   28.68000      0.0000000E+00
   28.72000      0.0000000E+00
   28.76000      0.0000000E+00
   28.80000      0.0000000E+00
   28.84000      0.0000000E+00
   28.88000      0.0000000E+00
   28.92000      0.0000000E+00
   28.96000      0.0000000E+00
   29.00000      0.0000000E+00
   29.04000      0.0000000E+00
   29.08000      0.0000000E+00
   29.12000      0.0000000E+00
   29.16000      0.0000000E+00
   29.20000      0.0000000E+00
   29.24000      0.0000000E+00
   29.28000      0.0000000E+00
   29.32000      0.0000000E+00
   29.36000      0.0000000E+00
   29.40000      0.0000000E+00
   29.44000      0.0000000E+00
   29.48000      0.0000000E+00
   29.52000      0.0000000E+00
   29.56000      0.0000000E+00
   29.60000      0.0000000E+00
   29.64000      0.0000000E+00
   29.68000      0.0000000E+00
   29.72000      0.0000000E+00
   29.76000      0.0000000E+00
   29.80000      0.0000000E+00
   29.84000      0.0000000E+00
   29.88000      0.0000000E+00
   29.92000      0.0000000E+00
   29.96000      0.0000000E+00
   30.00000      0.0000000E+00
   30.04000      0.0000000E+00
   30.08000      0.0000000E+00
   30.12000      0.0000000E+00
   30.16000      0.0000000E+00
   30.20000      0.0000000E+00
   30.24000      0.0000000E+00
   30.28000      0.0000000E+00
   30.32000      0.0000000E+00
   30.36000      0.0000000E+00
   30.40000      0.0000000E+00
   30.44000      0.0000000E+00
   30.48000      0.0000000E+00
   30.52000      0.0000000E+00
   30.56000      0.0000000E+00
   30.60000      0.0000000E+00
   30.64000      0.0000000E+00
   30.68000      0.0000000E+00
   30.72000      0.0000000E+00
   30.76000      0.0000000E+00
   30.80000      0.0000000E+00
   30.84000      0.0000000E+00
   30.88000      0.0000000E+00
   30.92000      0.0000000E+00
   30.96000      0.0000000E+00
   31.00000      0.0000000E+00
   31.04000      0.0000000E+00
   31.08000      0.0000000E+00
   31.12000      0.0000000E+00
   31.16000      0.0000000E+00
   31.20000      0.0000000E+00
   31.24000      0.0000000E+00
   31.28000      0.0000000E+00
   31.32000      0.0000000E+00
   31.36000      0.0000000E+00
   31.40000      0.0000000E+00
   31.44000      0.0000000E+00
   31.48000      0.0000000E+00
   31.52000      0.0000000E+00
   31.56000      0.0000000E+00
   31.60000      0.0000000E+00
   31.64000      0.0000000E+00
   31.68000      0.0000000E+00
   31.72000      0.0000000E+00
   31.76000      0.0000000E+00
   31.80000      0.0000000E+00
   31.84000      0.0000000E+00
   31.88000      0.0000000E+00
   31.92000      0.0000000E+00
   31.96000      0.0000000E+00
   32.00000      0.0000000E+00
   32.04000      0.0000000E+00
   32.08000      0.0000000E+00
   32.12000      0.0000000E+00
   32.16000      0.0000000E+00
   32.20000      0.0000000E+00
   32.24000      0.0000000E+00
   32.28000      0.0000000E+00
   32.32000      0.0000000E+00
   32.36000      0.0000000E+00
   32.40000      0.0000000E+00
   32.44000      0.0000000E+00
   32.48000      0.0000000E+00
   32.52000      0.0000000E+00
   32.56000      0.0000000E+00
   32.60000      0.0000000E+00
   32.64000      0.0000000E+00
   32.68000      0.0000000E+00
   32.72000      0.0000000E+00
   32.76000      0.0000000E+00
   32.80000      0.0000000E+00
   32.84000      0.0000000E+00
   32.88000      0.0000000E+00
   32.92000      0.0000000E+00
   32.96000      0.0000000E+00
   33.00000      0.0000000E+00
   33.04000      0.0000000E+00
   33.08000      0.0000000E+00
   33.12000      0.0000000E+00
   33.16000      0.0000000E+00
   33.20000      0.0000000E+00
   33.24000      0.0000000E+00
   33.28000      0.0000000E+00
   33.32000      0.0000000E+00
   33.36000      0.0000000E+00
   33.40000      0.0000000E+00
   33.44000      0.0000000E+00
   33.48000      0.0000000E+00
   33.52000      0.0000000E+00
   33.56000      0.0000000E+00
   33.60000      0.0000000E+00
   33.64000      0.0000000E+00
   33.68000      0.0000000E+00
   33.72000      0.0000000E+00
   33.76000      0.0000000E+00
   33.80000      0.0000000E+00
   33.84000      0.0000000E+00
   33.88000      0.0000000E+00
   33.92000      0.0000000E+00
   33.96000      0.0000000E+00
   34.00000      0.0000000E+00
   34.04000      0.0000000E+00
   34.08000      0.0000000E+00
   34.12000      0.0000000E+00
   34.16000      0.0000000E+00
   34.20000      0.0000000E+00
   34.24000      0.0000000E+00
   34.28000      0.0000000E+00
   34.32000      0.0000000E+00
   34.36000     -3.4996939E-38
   34.40000     -1.0039459E-37
   34.44000     -1.5251683E-37
   34.48000     -1.6969138E-37
   34.52000     -1.3234755E-37
   34.56000     -3.7808896E-38
   34.60000      4.9513934E-38
   34.64000      1.1304276E-37