  -4.000000      0.0000000E+00
  -3.960000      0.0000000E+00
  -3.920000      0.0000000E+00
  -3.880000      0.0000000E+00
  -3.840000      0.0000000E+00
  -3.800000      0.0000000E+00
  -3.760000      0.0000000E+00
  -3.720000      0.0000000E+00
  -3.680000      0.0000000E+00
  -3.640000      0.0000000E+00
  -3.600000      0.0000000E+00
  -3.560000      0.0000000E+00
  -3.520000      0.0000000E+00
  -3.480000      0.0000000E+00
  -3.440000      0.0000000E+00
  -3.400000      0.0000000E+00
  -3.360000      0.0000000E+00
  -3.320000      0.0000000E+00
  -3.280000      0.0000000E+00
  -3.240000      0.0000000E+00
  -3.200000      0.0000000E+00
  -3.160000      0.0000000E+00
  -3.120000      0.0000000E+00
  -3.080000      0.0000000E+00
  -3.040000      0.0000000E+00
  -3.000000      0.0000000E+00
  -2.960000      0.0000000E+00
  -2.920000      0.0000000E+00
  -2.880000      0.0000000E+00
  -2.840000      0.0000000E+00
  -2.800000      0.0000000E+00
  -2.760000      0.0000000E+00
  -2.720000      0.0000000E+00
  -2.680000      0.0000000E+00
  -2.640000      0.0000000E+00
  -2.600000      0.0000000E+00
  -2.560000      0.0000000E+00
  -2.520000      0.0000000E+00
  -2.480000      0.0000000E+00
  -2.440000      0.0000000E+00
  -2.400000      0.0000000E+00
  -2.360000      0.0000000E+00
  -2.320000      0.0000000E+00
  -2.280000      0.0000000E+00
  -2.240000      0.0000000E+00
  -2.200000      0.0000000E+00
  -2.160000      0.0000000E+00
  -2.120000      0.0000000E+00
  -2.080000      0.0000000E+00
  -2.040000      0.0000000E+00
  -2.000000      0.0000000E+00
  -1.960000      0.0000000E+00
  -1.920000      0.0000000E+00
  -1.880000      0.0000000E+00
  -1.840000      0.0000000E+00
  -1.800000      0.0000000E+00
  -1.760000      0.0000000E+00
  -1.720000      0.0000000E+00
  -1.680000      0.0000000E+00
  -1.640000      0.0000000E+00
  -1.600000      0.0000000E+00
  -1.560000      0.0000000E+00
  -1.520000      0.0000000E+00
  -1.480000      0.0000000E+00
  -1.440000      0.0000000E+00
  -1.400000      0.0000000E+00
  -1.360000      0.0000000E+00
  -1.320000      0.0000000E+00
  -1.280000      0.0000000E+00
  -1.240000      0.0000000E+00
  -1.200000      0.0000000E+00
  -1.160000      0.0000000E+00
  -1.120000      0.0000000E+00
  -1.080000      0.0000000E+00
  -1.040000      0.0000000E+00
  -1.000000      0.0000000E+00
 -0.9600000      0.0000000E+00
 -0.9200000      0.0000000E+00
 -0.8800000      0.0000000E+00
 -0.8400000      0.0000000E+00
 -0.8000000      0.0000000E+00
 -0.7600000      0.0000000E+00
 -0.7200000      0.0000000E+00
 -0.6800000      0.0000000E+00
 -0.6400000      0.0000000E+00
 -0.6000000      0.0000000E+00
 -0.5600000      0.0000000E+00
 -0.5200000      0.0000000E+00
 -0.4800000      0.0000000E+00
 -0.4400000      0.0000000E+00
 -0.4000000      0.0000000E+00
 -0.3600000      0.0000000E+00
 -0.3200000      0.0000000E+00
 -0.2800000      0.0000000E+00
 -0.2400000      0.0000000E+00
 -0.2000000      0.0000000E+00
 -0.1600000      0.0000000E+00
 -0.1200000      0.0000000E+00
 -7.9999998E-02  0.0000000E+00
 -3.9999999E-02  0.0000000E+00
  8.3266727E-17  0.0000000E+00
  3.9999999E-02  0.0000000E+00
  7.9999998E-02  0.0000000E+00
  0.1200000      0.0000000E+00
  0.1600000      0.0000000E+00
  0.2000000      0.0000000E+00
  0.2400000      0.0000000E+00
  0.2800000      0.0000000E+00
  0.3200000      0.0000000E+00
  0.3600000      0.0000000E+00
  0.4000000      0.0000000E+00
  0.4400000      0.0000000E+00
  0.4800000      0.0000000E+00
  0.5200000      0.0000000E+00
  0.5600000      0.0000000E+00
  0.6000000      0.0000000E+00
  0.6400000      0.0000000E+00
  0.6800000      0.0000000E+00
  0.7200000      0.0000000E+00
  0.7600000      0.0000000E+00
  0.8000000      0.0000000E+00
  0.8400000      0.0000000E+00
  0.8800000      0.0000000E+00
  0.9200000      0.0000000E+00
  0.9600000      0.0000000E+00
   1.000000      0.0000000E+00
   1.040000      0.0000000E+00
   1.080000      0.0000000E+00
   1.120000      0.0000000E+00
   1.160000      0.0000000E+00
   1.200000      0.0000000E+00
   1.240000      0.0000000E+00
   1.280000      0.0000000E+00
   1.320000      0.0000000E+00
   1.360000      0.0000000E+00
   1.400000      0.0000000E+00
   1.440000      0.0000000E+00
   1.480000      0.0000000E+00
   1.520000      0.0000000E+00
   1.560000      0.0000000E+00
   1.600000      0.0000000E+00
   1.640000      0.0000000E+00
   1.680000      0.0000000E+00
   1.720000      0.0000000E+00
   1.760000      0.0000000E+00
   1.800000      0.0000000E+00
   1.840000      0.0000000E+00
   1.880000      0.0000000E+00
   1.920000      0.0000000E+00
   1.960000      0.0000000E+00
   2.000000      0.0000000E+00
   2.040000      0.0000000E+00
   2.080000      0.0000000E+00
   2.120000      0.0000000E+00
   2.160000      0.0000000E+00
   2.200000      0.0000000E+00
   2.240000      0.0000000E+00
   2.280000      0.0000000E+00
   2.320000      0.0000000E+00
   2.360000      0.0000000E+00
   2.400000      0.0000000E+00
   2.440000      0.0000000E+00
   2.480000      0.0000000E+00
   2.520000      0.0000000E+00
   2.560000      0.0000000E+00
   2.600000      0.0000000E+00
   2.640000      0.0000000E+00
   2.680000      0.0000000E+00
   2.720000      0.0000000E+00
   2.760000      0.0000000E+00
   2.800000      0.0000000E+00
   2.840000      0.0000000E+00
   2.880000      0.0000000E+00
   2.920000      0.0000000E+00
   2.960000      0.0000000E+00
   3.000000      0.0000000E+00
   3.040000      0.0000000E+00
   3.080000      0.0000000E+00
   3.120000      0.0000000E+00
   3.160000      0.0000000E+00
   3.200000      0.0000000E+00
   3.240000      0.0000000E+00
   3.280000      0.0000000E+00
   3.320000      0.0000000E+00
   3.360000      0.0000000E+00
   3.400000      0.0000000E+00
   3.440000      0.0000000E+00
   3.480000      0.0000000E+00
   3.520000      0.0000000E+00
   3.560000      0.0000000E+00
   3.600000      0.0000000E+00
   3.640000      0.0000000E+00
   3.680000      0.0000000E+00
   3.720000      0.0000000E+00
   3.760000      0.0000000E+00
   3.800000      0.0000000E+00
   3.840000      0.0000000E+00
   3.880000      0.0000000E+00
   3.920000      0.0000000E+00
   3.960000      0.0000000E+00
   4.000000      0.0000000E+00
   4.040000      0.0000000E+00
   4.080000      0.0000000E+00
   4.120000      0.0000000E+00
   4.160000      0.0000000E+00
   4.200000      0.0000000E+00
   4.240000      0.0000000E+00
   4.280000      0.0000000E+00
   4.320000      0.0000000E+00
   4.360000      0.0000000E+00
   4.400000      0.0000000E+00
   4.440000      0.0000000E+00
   4.480000      0.0000000E+00
   4.520000      0.0000000E+00
   4.560000      0.0000000E+00
   4.600000      0.0000000E+00
   4.640000      0.0000000E+00
   4.680000      0.0000000E+00
   4.720000      0.0000000E+00
   4.760000      0.0000000E+00
   4.800000      0.0000000E+00
   4.840000      0.0000000E+00
   4.880000      0.0000000E+00
   4.920000      0.0000000E+00
   4.960000      0.0000000E+00
   5.000000      0.0000000E+00
   5.040000      0.0000000E+00
   5.080000      0.0000000E+00
   5.120000      0.0000000E+00
   5.160000      0.0000000E+00
   5.200000      0.0000000E+00
   5.240000      0.0000000E+00
   5.280000      0.0000000E+00
   5.320000      0.0000000E+00
   5.360000      0.0000000E+00
   5.400000      0.0000000E+00
   5.440000      0.0000000E+00
   5.480000      0.0000000E+00
   5.520000      0.0000000E+00
   5.560000      0.0000000E+00
   5.600000      0.0000000E+00
   5.640000      0.0000000E+00
   5.680000      0.0000000E+00
   5.720000      0.0000000E+00
   5.760000      0.0000000E+00
   5.800000      0.0000000E+00
   5.840000      0.0000000E+00
   5.880000      0.0000000E+00
   5.920000      0.0000000E+00
   5.960000      0.0000000E+00
   6.000000      0.0000000E+00
   6.040000      0.0000000E+00
   6.080000      0.0000000E+00
   6.120000      0.0000000E+00
   6.160000      0.0000000E+00
   6.200000      0.0000000E+00
   6.240000      0.0000000E+00
   6.280000      0.0000000E+00
   6.320000      0.0000000E+00
   6.360000      0.0000000E+00
   6.400000      0.0000000E+00
   6.440000      0.0000000E+00
   6.480000      0.0000000E+00
   6.520000      0.0000000E+00
   6.560000      0.0000000E+00
   6.600000      0.0000000E+00
   6.640000      0.0000000E+00
   6.680000      0.0000000E+00
   6.720000      0.0000000E+00
   6.760000      0.0000000E+00
   6.800000      0.0000000E+00
   6.840000      0.0000000E+00
   6.880000      0.0000000E+00
   6.920000      0.0000000E+00
   6.960000      0.0000000E+00
   7.000000      0.0000000E+00
   7.040000      0.0000000E+00
   7.080000      0.0000000E+00
   7.120000      0.0000000E+00
   7.160000      0.0000000E+00
   7.200000      0.0000000E+00
   7.240000      0.0000000E+00
   7.280000      0.0000000E+00
   7.320000      0.0000000E+00
   7.360000      0.0000000E+00
   7.400000      0.0000000E+00
   7.440000      0.0000000E+00
   7.480000      0.0000000E+00
   7.520000      0.0000000E+00
   7.560000      0.0000000E+00
   7.600000      0.0000000E+00
   7.640000      0.0000000E+00
   7.680000      0.0000000E+00
   7.720000      0.0000000E+00
   7.760000      0.0000000E+00
   7.800000      0.0000000E+00
   7.840000      0.0000000E+00
   7.880000      0.0000000E+00
   7.920000      0.0000000E+00
   7.960000      0.0000000E+00
   8.000000      0.0000000E+00
   8.040000      0.0000000E+00
   8.080000      0.0000000E+00
   8.120000      0.0000000E+00
   8.160000      0.0000000E+00
   8.200000      0.0000000E+00
   8.240000      0.0000000E+00
   8.280000      0.0000000E+00
   8.320000      0.0000000E+00
   8.360000      0.0000000E+00
   8.400000      0.0000000E+00
   8.440000      0.0000000E+00
   8.480000      0.0000000E+00
   8.520000      0.0000000E+00
   8.560000      0.0000000E+00
   8.600000      0.0000000E+00
   8.640000      0.0000000E+00
   8.680000      0.0000000E+00
   8.720000      0.0000000E+00
   8.760000      0.0000000E+00
   8.800000      0.0000000E+00
   8.840000      0.0000000E+00
   8.880000      0.0000000E+00
   8.920000      0.0000000E+00
   8.960000      0.0000000E+00
   9.000000      0.0000000E+00
   9.040000      0.0000000E+00
   9.080000      0.0000000E+00
   9.120000      0.0000000E+00
   9.160000      0.0000000E+00
   9.200000      0.0000000E+00
   9.240000      0.0000000E+00
   9.280000      0.0000000E+00
   9.320000      0.0000000E+00
   9.360000      0.0000000E+00
   9.400000      0.0000000E+00
   9.440000      0.0000000E+00
   9.480000      0.0000000E+00
   9.520000      0.0000000E+00
   9.560000      0.0000000E+00
   9.600000      0.0000000E+00
   9.640000      0.0000000E+00
   9.680000      0.0000000E+00
   9.720000      0.0000000E+00
   9.760000      0.0000000E+00
   9.800000      0.0000000E+00
   9.840000      0.0000000E+00
   9.880000      0.0000000E+00
   9.920000      0.0000000E+00
   9.960000      0.0000000E+00
   10.00000      0.0000000E+00
   10.04000      0.0000000E+00
   10.08000      0.0000000E+00
   10.12000      0.0000000E+00
   10.16000      0.0000000E+00
   10.20000      0.0000000E+00
   10.24000      0.0000000E+00
   10.28000      0.0000000E+00
   10.32000      0.0000000E+00
   10.36000      0.0000000E+00
   10.40000      0.0000000E+00
   10.44000      0.0000000E+00
   10.48000      0.0000000E+00
   10.52000      0.0000000E+00
   10.56000      0.0000000E+00
   10.60000      0.0000000E+00
   10.64000      0.0000000E+00
   10.68000      0.0000000E+00
   10.72000      0.0000000E+00
   10.76000      0.0000000E+00
   10.80000      0.0000000E+00
   10.84000      0.0000000E+00
   10.88000      0.0000000E+00
   10.92000      0.0000000E+00
   10.96000      0.0000000E+00
   11.00000      0.0000000E+00
   11.04000      0.0000000E+00
   11.08000      0.0000000E+00
   11.12000      0.0000000E+00
   11.16000      0.0000000E+00
   11.20000      0.0000000E+00
   11.24000      0.0000000E+00
   11.28000      0.0000000E+00
   11.32000      0.0000000E+00
   11.36000      0.0000000E+00
   11.40000      0.0000000E+00
   11.44000      0.0000000E+00
   11.48000      0.0000000E+00
   11.52000      0.0000000E+00
   11.56000      0.0000000E+00
   11.60000      0.0000000E+00
   11.64000      0.0000000E+00
   11.68000      0.0000000E+00
   11.72000      0.0000000E+00
   11.76000      0.0000000E+00
   11.80000      0.0000000E+00
   11.84000      0.0000000E+00
   11.88000      0.0000000E+00
   11.92000      0.0000000E+00
   11.96000      0.0000000E+00
   12.00000      0.0000000E+00
   12.04000      0.0000000E+00
   12.08000      0.0000000E+00
   12.12000      0.0000000E+00
   12.16000      0.0000000E+00
   12.20000      0.0000000E+00
   12.24000      0.0000000E+00
   12.28000      0.0000000E+00
   12.32000      0.0000000E+00
   12.36000      0.0000000E+00
   12.40000      0.0000000E+00
   12.44000      0.0000000E+00
   12.48000      0.0000000E+00
   12.52000      0.0000000E+00
   12.56000      0.0000000E+00
   12.60000      0.0000000E+00
   12.64000      0.0000000E+00
   12.68000      0.0000000E+00
   12.72000      0.0000000E+00
   12.76000      0.0000000E+00
   12.80000      0.0000000E+00
   12.84000      0.0000000E+00
   12.88000      0.0000000E+00
   12.92000      0.0000000E+00
   12.96000      0.0000000E+00
   13.00000      0.0000000E+00
   13.04000      0.0000000E+00
   13.08000      0.0000000E+00
   13.12000      0.0000000E+00
   13.16000      0.0000000E+00
   13.20000      0.0000000E+00
   13.24000      0.0000000E+00
   13.28000      0.0000000E+00
   13.32000      0.0000000E+00
   13.36000      0.0000000E+00
   13.40000      0.0000000E+00
   13.44000      0.0000000E+00
   13.48000      0.0000000E+00
   13.52000      0.0000000E+00
   13.56000      0.0000000E+00
   13.60000      0.0000000E+00
   13.64000      0.0000000E+00
   13.68000      0.0000000E+00
   13.72000      0.0000000E+00
   13.76000      0.0000000E+00
   13.80000      0.0000000E+00
   13.84000      0.0000000E+00
   13.88000      0.0000000E+00
   13.92000      0.0000000E+00
   13.96000      0.0000000E+00
   14.00000      0.0000000E+00
   14.04000      0.0000000E+00
   14.08000      0.0000000E+00
   14.12000      0.0000000E+00
   14.16000      0.0000000E+00
   14.20000      0.0000000E+00
   14.24000      0.0000000E+00
   14.28000      0.0000000E+00
   14.32000      0.0000000E+00
   14.36000      0.0000000E+00
   14.40000      0.0000000E+00
   14.44000      0.0000000E+00
   14.48000      0.0000000E+00
   14.52000      0.0000000E+00
   14.56000      0.0000000E+00
   14.60000      0.0000000E+00
   14.64000      0.0000000E+00
   14.68000      0.0000000E+00
   14.72000      0.0000000E+00
   14.76000      0.0000000E+00
   14.80000      0.0000000E+00
   14.84000      0.0000000E+00
   14.88000      0.0000000E+00
   14.92000      0.0000000E+00
   14.96000      0.0000000E+00
   15.00000      0.0000000E+00
   15.04000      0.0000000E+00
   15.08000      0.0000000E+00
   15.12000      0.0000000E+00
   15.16000      0.0000000E+00
   15.20000      0.0000000E+00
   15.24000      0.0000000E+00
   15.28000      0.0000000E+00
   15.32000      0.0000000E+00
   15.36000      0.0000000E+00
   15.40000      0.0000000E+00
   15.44000      0.0000000E+00
   15.48000      0.0000000E+00
   15.52000      0.0000000E+00
   15.56000      0.0000000E+00
   15.60000      0.0000000E+00
   15.64000      0.0000000E+00
   15.68000      0.0000000E+00
   15.72000      0.0000000E+00
   15.76000      0.0000000E+00
   15.80000      0.0000000E+00
   15.84000      0.0000000E+00
   15.88000      0.0000000E+00
   15.92000      0.0000000E+00
   15.96000      0.0000000E+00
   16.00000      0.0000000E+00
   16.04000      0.0000000E+00
   16.08000      0.0000000E+00
   16.12000      0.0000000E+00
   16.16000      0.0000000E+00
   16.20000      0.0000000E+00
   16.24000      0.0000000E+00
   16.28000      0.0000000E+00
   16.32000      0.0000000E+00
   16.36000      0.0000000E+00
   16.40000      0.0000000E+00
   16.44000      0.0000000E+00
   16.48000      0.0000000E+00
   16.52000      0.0000000E+00
   16.56000      0.0000000E+00
   16.60000      0.0000000E+00
   16.64000      0.0000000E+00
   16.68000      0.0000000E+00
   16.72000      0.0000000E+00
   16.76000      0.0000000E+00
   16.80000      0.0000000E+00
   16.84000      0.0000000E+00
   16.88000      0.0000000E+00
   16.92000      0.0000000E+00
   16.96000      0.0000000E+00
   17.00000      0.0000000E+00
   17.04000      0.0000000E+00
   17.08000      0.0000000E+00
   17.12000      0.0000000E+00
   17.16000      0.0000000E+00
   17.20000      0.0000000E+00
   17.24000      0.0000000E+00
   17.28000      0.0000000E+00
   17.32000      0.0000000E+00
   17.36000      0.0000000E+00
   17.40000      0.0000000E+00
   17.44000      0.0000000E+00
   17.48000      0.0000000E+00
   17.52000      0.0000000E+00
   17.56000      0.0000000E+00
   17.60000      0.0000000E+00
   17.64000      0.0000000E+00
   17.68000      0.0000000E+00
   17.72000      0.0000000E+00
   17.76000      0.0000000E+00
   17.80000      0.0000000E+00
   17.84000      0.0000000E+00
   17.88000      0.0000000E+00
   17.92000      0.0000000E+00
   17.96000      0.0000000E+00
   18.00000      0.0000000E+00
   18.04000      0.0000000E+00
   18.08000      0.0000000E+00
   18.12000      0.0000000E+00
   18.16000      0.0000000E+00
   18.20000      0.0000000E+00
   18.24000      0.0000000E+00
   18.28000      0.0000000E+00
   18.32000      0.0000000E+00
   18.36000      0.0000000E+00
   18.40000      0.0000000E+00
   18.44000      0.0000000E+00
   18.48000      0.0000000E+00
   18.52000      0.0000000E+00
   18.56000      0.0000000E+00
   18.60000      0.0000000E+00
   18.64000      0.0000000E+00
   18.68000      0.0000000E+00
   18.72000      0.0000000E+00
   18.76000      0.0000000E+00
   18.80000      0.0000000E+00
   18.84000      0.0000000E+00
   18.88000      0.0000000E+00
   18.92000      0.0000000E+00
   18.96000      0.0000000E+00
   19.00000      0.0000000E+00
   19.04000      0.0000000E+00
   19.08000      0.0000000E+00
   19.12000      0.0000000E+00
   19.16000      0.0000000E+00
   19.20000      0.0000000E+00
   19.24000      0.0000000E+00
   19.28000      0.0000000E+00
   19.32000      0.0000000E+00
   19.36000      0.0000000E+00
   19.40000      0.0000000E+00
   19.44000      0.0000000E+00
   19.48000      0.0000000E+00
   19.52000      0.0000000E+00
   19.56000      0.0000000E+00
   19.60000      0.0000000E+00
   19.64000      0.0000000E+00
   19.68000      0.0000000E+00
   19.72000      0.0000000E+00
   19.76000      0.0000000E+00
   19.80000      0.0000000E+00
   19.84000      0.0000000E+00
   19.88000      0.0000000E+00
   19.92000      0.0000000E+00
   19.96000      0.0000000E+00
   20.00000      0.0000000E+00
   20.04000      0.0000000E+00
   20.08000      0.0000000E+00
   20.12000      0.0000000E+00
   20.16000      0.0000000E+00
   20.20000      0.0000000E+00
   20.24000      0.0000000E+00
   20.28000      0.0000000E+00
   20.32000      0.0000000E+00
   20.36000      0.0000000E+00
   20.40000      0.0000000E+00
   20.44000      0.0000000E+00
   20.48000      0.0000000E+00
   20.52000      0.0000000E+00
   20.56000      0.0000000E+00
   20.60000      0.0000000E+00
   20.64000      0.0000000E+00
   20.68000      0.0000000E+00
   20.72000      0.0000000E+00
   20.76000      0.0000000E+00
   20.80000      0.0000000E+00
   20.84000      0.0000000E+00
   20.88000      0.0000000E+00
   20.92000      0.0000000E+00
   20.96000      0.0000000E+00
   21.00000      0.0000000E+00
   21.04000      0.0000000E+00
   21.08000      0.0000000E+00
   21.12000      0.0000000E+00
   21.16000      0.0000000E+00
   21.20000      0.0000000E+00
   21.24000      0.0000000E+00
   21.28000      0.0000000E+00
   21.32000      0.0000000E+00
   21.36000      0.0000000E+00
   21.40000      0.0000000E+00
   21.44000      0.0000000E+00
   21.48000      0.0000000E+00
   21.52000      0.0000000E+00
   21.56000      0.0000000E+00
   21.60000      0.0000000E+00
   21.64000      0.0000000E+00
   21.68000      0.0000000E+00
   21.72000      0.0000000E+00
   21.76000      0.0000000E+00
   21.80000      0.0000000E+00
   21.84000      0.0000000E+00
   21.88000      0.0000000E+00
   21.92000      0.0000000E+00
   21.96000      0.0000000E+00
   22.00000      0.0000000E+00
   22.04000      0.0000000E+00
   22.08000      0.0000000E+00
   22.12000      0.0000000E+00
   22.16000      0.0000000E+00
   22.20000      0.0000000E+00
   22.24000      0.0000000E+00
   22.28000      0.0000000E+00
   22.32000      0.0000000E+00
   22.36000      0.0000000E+00
   22.40000      0.0000000E+00
   22.44000      0.0000000E+00
   22.48000      0.0000000E+00
   22.52000      0.0000000E+00
   22.56000      0.0000000E+00
   22.60000      0.0000000E+00
   22.64000      0.0000000E+00
   22.68000      0.0000000E+00
   22.72000      0.0000000E+00
   22.76000      0.0000000E+00
   22.80000      0.0000000E+00
   22.84000      0.0000000E+00
   22.88000      0.0000000E+00
   22.92000      0.0000000E+00
   22.96000      0.0000000E+00
   23.00000      0.0000000E+00
   23.04000      0.0000000E+00
   23.08000      0.0000000E+00
   23.12000      0.0000000E+00
   23.16000      0.0000000E+00
   23.20000      0.0000000E+00
   23.24000      0.0000000E+00
   23.28000      0.0000000E+00
   23.32000      0.0000000E+00
   23.36000      0.0000000E+00
   23.40000      0.0000000E+00
   23.44000      0.0000000E+00
   23.48000      0.0000000E+00
   23.52000      0.0000000E+00
   23.56000      0.0000000E+00
   23.60000      0.0000000E+00
   23.64000      0.0000000E+00
   23.68000      0.0000000E+00
   23.72000      0.0000000E+00
   23.76000      0.0000000E+00
   23.80000      0.0000000E+00
   23.84000      0.0000000E+00
   23.88000      0.0000000E+00
   23.92000      0.0000000E+00
   23.96000      0.0000000E+00
   24.00000      0.0000000E+00
   24.04000      0.0000000E+00
   24.08000      0.0000000E+00
   24.12000      0.0000000E+00
   24.16000      0.0000000E+00
   24.20000      0.0000000E+00
   24.24000      0.0000000E+00
   24.28000      0.0000000E+00
   24.32000      0.0000000E+00
   24.36000      0.0000000E+00
   24.40000      0.0000000E+00
   24.44000      0.0000000E+00
   24.48000      0.0000000E+00
   24.52000      0.0000000E+00
   24.56000      0.0000000E+00
   24.60000      0.0000000E+00
   24.64000      0.0000000E+00
   24.68000      0.0000000E+00
   24.72000      0.0000000E+00
   24.76000      0.0000000E+00
   24.80000      0.0000000E+00
   24.84000      0.0000000E+00
   24.88000      0.0000000E+00
   24.92000      0.0000000E+00
   24.96000      0.0000000E+00
   25.00000      0.0000000E+00
   25.04000      0.0000000E+00
   25.08000      0.0000000E+00
   25.12000      0.0000000E+00
   25.16000      0.0000000E+00
   25.20000      0.0000000E+00
   25.24000      0.0000000E+00
   25.28000      0.0000000E+00
   25.32000      0.0000000E+00
   25.36000      0.0000000E+00
   25.40000      0.0000000E+00
   25.44000      0.0000000E+00
   25.48000      0.0000000E+00
   25.52000      0.0000000E+00
   25.56000      0.0000000E+00
   25.60000      0.0000000E+00
   25.64000      0.0000000E+00
   25.68000      0.0000000E+00
   25.72000      0.0000000E+00
   25.76000      0.0000000E+00
   25.80000      0.0000000E+00
   25.84000      0.0000000E+00
   25.88000      0.0000000E+00
   25.92000      0.0000000E+00
   25.96000      0.0000000E+00
   26.00000      0.0000000E+00
   26.04000      0.0000000E+00
   26.08000      0.0000000E+00
   26.12000      0.0000000E+00
   26.16000      0.0000000E+00
   26.20000      0.0000000E+00
   26.24000      0.0000000E+00
   26.28000      0.0000000E+00
   26.32000      0.0000000E+00
   26.36000      0.0000000E+00
   26.40000      0.0000000E+00
   26.44000      0.0000000E+00
   26.48000      0.0000000E+00
   26.52000      0.0000000E+00
   26.56000      0.0000000E+00
   26.60000      0.0000000E+00
   26.64000      0.0000000E+00
   26.68000      0.0000000E+00
   26.72000      0.0000000E+00
   26.76000      0.0000000E+00
   26.80000      0.0000000E+00
   26.84000      0.0000000E+00
   26.88000      0.0000000E+00
   26.92000      0.0000000E+00
   26.96000      0.0000000E+00
   27.00000      0.0000000E+00
   27.04000      0.0000000E+00
   27.08000      0.0000000E+00
   27.12000      0.0000000E+00
   27.16000      0.0000000E+00
   27.20000      0.0000000E+00
   27.24000      0.0000000E+00
   27.28000      0.0000000E+00
   27.32000      0.0000000E+00
   27.36000      0.0000000E+00
   27.40000      0.0000000E+00
   27.44000      0.0000000E+00
   27.48000      0.0000000E+00
   27.52000      0.0000000E+00
   27.56000      0.0000000E+00
   27.60000      0.0000000E+00
   27.64000      0.0000000E+00
   27.68000      0.0000000E+00
   27.72000      0.0000000E+00
   27.76000     -1.5962523E-38
   27.80000     -2.4179097E-38
   27.84000     -2.3774917E-38
   27.88000     -1.2738016E-38
   27.92000      0.0000000E+00
   27.96000      5.2779318E-38
   28.00000      8.7961175E-38
   28.04000      1.6730115E-37
   28.08000      1.9947925E-37
   28.12000      1.5429855E-37
   28.16000      0.0000000E+00
   28.20000     -2.3717311E-37
   28.24000     -4.1905725E-37
   28.28000     -4.7750301E-37
   28.32000     -3.6648946E-37
   28.36000     -1.3552341E-37
   28.40000      7.4560087E-38
   28.44000      2.3370111E-37
   28.48000      3.7790585E-37
   28.52000      6.1567763E-37
   28.56000      9.6554773E-37
   28.60000      1.3799155E-36
   28.64000      1.4977590E-36
   28.68000      1.0486450E-36
   28.72000      1.9807293E-37
   28.76000     -7.5904809E-37
   28.80000     -1.2698962E-36
   28.84000     -8.8234702E-37
   28.88000      4.8573224E-37
   28.92000      2.3226643E-36
   28.96000      3.5136774E-36
   29.00000      2.9662777E-36
   29.04000      1.5032368E-37
   29.08000     -4.5964803E-36
   29.12000     -9.8828913E-36
   29.16000     -1.3548069E-35
   29.20000     -1.4003642E-35
   29.24000     -1.0069805E-35
   29.28000     -1.8641833E-36
   29.32000      9.3705317E-36
   29.36000      2.0652503E-35
   29.40000      2.9230644E-35
   29.44000      3.1543702E-35
   29.48000      2.6784879E-35
   29.52000      1.4972013E-35
   29.56000     -2.1591381E-36
   29.60000     -2.0942814E-35
   29.64000     -3.7274085E-35
   29.68000     -4.7547521E-35
   29.72000     -4.8726738E-35
   29.76000     -3.9915214E-35
   29.80000     -2.1231134E-35
   29.84000      4.6253952E-36
   29.88000      3.2761757E-35
   29.92000      5.8480970E-35
   29.96000      7.5881989E-35
   30.00000      8.0055482E-35
   30.04000      6.7242708E-35
   30.08000      3.6291296E-35
   30.12000     -1.0370253E-35
   30.16000     -6.6083423E-35
   30.20000     -1.2128301E-34
   30.24000     -1.6448197E-34
   30.28000     -1.8421962E-34
   30.32000     -1.7135835E-34
   30.36000     -1.2134221E-34
   30.40000     -3.6403786E-35
   30.44000      7.3621745E-35
   30.48000      1.9128569E-34
   30.52000      2.9414228E-34
   30.56000      3.5695360E-34
   30.60000      3.5775043E-34
   30.64000      2.8209899E-34
   30.68000      1.2952599E-34
   30.72000     -8.4224394E-35
   30.76000     -3.2637162E-34
   30.80000     -5.5074023E-34
   30.84000     -7.0531337E-34
   30.88000     -7.4182629E-34
   30.92000     -6.2691511E-34
   30.96000     -3.5233538E-34
   31.00000      5.7990838E-35
   31.04000      5.4638589E-34
   31.08000      1.0253530E-33
   31.12000      1.3906601E-33
   31.16000      1.5394572E-33
   31.20000      1.3925215E-33
   31.24000      9.1647977E-34
   31.28000      1.4116783E-34
   31.32000     -8.3237600E-34
   31.36000     -1.8379875E-33
   31.40000     -2.6656259E-33
   31.44000     -3.0977215E-33
   31.48000     -2.9554116E-33
   31.52000     -2.1460389E-33
   31.56000     -7.0210877E-34
   31.60000      1.1987025E-33
   31.64000      3.2421097E-33
   31.68000      5.0169952E-33
   31.72000      6.0847632E-33
   31.76000      6.0686071E-33
   31.80000      4.7477989E-33
   31.84000      2.1371575E-33
   31.88000     -1.4680627E-33
   31.92000     -5.4985126E-33
   31.96000     -9.1771042E-33
   32.00000     -1.1643464E-32
   32.04000     -1.2121624E-32
   32.08000     -1.0103741E-32
   32.12000     -5.5138495E-33
   32.16000      1.1878083E-33
   32.20000      8.9943376E-33
   32.24000      1.6457137E-32
   32.28000      2.1907233E-32
   32.32000      2.3768959E-32
   32.36000      2.0917261E-32
   32.40000      1.3010610E-32
   32.44000      7.2296897E-34
   32.48000     -1.4195508E-32
   32.52000     -2.9076670E-32
   32.56000     -4.0722019E-32
   32.60000     -4.5982262E-32
   32.64000     -4.2443525E-32
   32.68000     -2.9093929E-32
   32.72000     -6.8232187E-33
   32.76000      2.1385578E-32
   32.80000      5.0675632E-32
   32.84000      7.4982316E-32
   32.88000      8.8092011E-32
   32.92000      8.4945036E-32
   32.96000      6.2951754E-32
   33.00000      2.3042231E-32
   33.04000     -2.9828722E-32
   33.08000     -8.6937770E-32
   33.12000     -1.3690726E-31
   33.16000     -1.6760963E-31
   33.20000     -1.6861189E-31
   33.24000     -1.3374433E-31
   33.28000     -6.3269573E-32
   33.32000      3.4891784E-32
   33.36000      1.4532704E-31
   33.40000      2.4692961E-31
   33.44000      3.1626835E-31
   33.48000      3.3211985E-31
   33.52000      2.8042654E-31
   33.56000      1.5870888E-31
   33.60000     -2.1115825E-32
   33.64000     -2.3242013E-31
   33.68000     -4.3661725E-31
   33.72000     -5.8899174E-31
   33.76000     -6.4697502E-31
   33.80000     -5.7958830E-31
   33.84000     -3.7627802E-31
   33.88000     -5.3154673E-32
   33.92000      3.4519271E-31
   33.96000      7.4954819E-31
   34.00000      1.0758734E-30
   34.04000      1.2401438E-30
   34.08000      1.1760602E-30
   34.12000      8.5245026E-31
   34.16000      2.8663501E-31
   34.20000     -4.4983254E-31
   34.24000     -1.2357281E-30
   34.28000     -1.9160298E-30
   34.32000     -2.3279319E-30
   34.36000     -2.3334720E-30
   34.40000     -1.8531813E-30
   34.44000     -8.9390148E-31
   34.48000      4.3617522E-31
   34.52000      1.9308093E-30
   34.56000      3.3101402E-30
   34.60000      4.2651129E-30
   34.64000      4.5163934E-30