  -4.000000      0.0000000E+00
  -3.960000      0.0000000E+00
  -3.920000      0.0000000E+00
  -3.880000      0.0000000E+00
  -3.840000      0.0000000E+00
  -3.800000      0.0000000E+00
  -3.760000      0.0000000E+00
  -3.720000      0.0000000E+00
  -3.680000      0.0000000E+00
  -3.640000      0.0000000E+00
  -3.600000      0.0000000E+00
  -3.560000      0.0000000E+00
  -3.520000      0.0000000E+00
  -3.480000      0.0000000E+00
  -3.440000      0.0000000E+00
  -3.400000      0.0000000E+00
  -3.360000      0.0000000E+00
  -3.320000      0.0000000E+00
  -3.280000      0.0000000E+00
  -3.240000      0.0000000E+00
  -3.200000      0.0000000E+00
  -3.160000      0.0000000E+00
  -3.120000      0.0000000E+00
  -3.080000      0.0000000E+00
  -3.040000      0.0000000E+00
  -3.000000      0.0000000E+00
  -2.960000      0.0000000E+00
  -2.920000      0.0000000E+00
  -2.880000      0.0000000E+00
  -2.840000      0.0000000E+00
  -2.800000      0.0000000E+00
  -2.760000      0.0000000E+00
  -2.720000      0.0000000E+00
  -2.680000      0.0000000E+00
  -2.640000      0.0000000E+00
  -2.600000      0.0000000E+00
  -2.560000      0.0000000E+00
  -2.520000      0.0000000E+00
  -2.480000      0.0000000E+00
  -2.440000      0.0000000E+00
  -2.400000      0.0000000E+00
  -2.360000      0.0000000E+00
  -2.320000      0.0000000E+00
  -2.280000      0.0000000E+00
  -2.240000      0.0000000E+00
  -2.200000      0.0000000E+00
  -2.160000      0.0000000E+00
  -2.120000      0.0000000E+00
  -2.080000      0.0000000E+00
  -2.040000      0.0000000E+00
  -2.000000      0.0000000E+00
  -1.960000      0.0000000E+00
  -1.920000      0.0000000E+00
  -1.880000      0.0000000E+00
  -1.840000      0.0000000E+00
  -1.800000      0.0000000E+00
  -1.760000      0.0000000E+00
  -1.720000      0.0000000E+00
  -1.680000      0.0000000E+00
  -1.640000      0.0000000E+00
  -1.600000      0.0000000E+00
  -1.560000      0.0000000E+00
  -1.520000      0.0000000E+00
  -1.480000      0.0000000E+00
  -1.440000      0.0000000E+00
  -1.400000      0.0000000E+00
  -1.360000      0.0000000E+00
  -1.320000      0.0000000E+00
  -1.280000      0.0000000E+00
  -1.240000      0.0000000E+00
  -1.200000      0.0000000E+00
  -1.160000      0.0000000E+00
  -1.120000      0.0000000E+00
  -1.080000      0.0000000E+00
  -1.040000      0.0000000E+00
  -1.000000      0.0000000E+00
 -0.9600000      0.0000000E+00
 -0.9200000      0.0000000E+00
 -0.8800000      0.0000000E+00
 -0.8400000      0.0000000E+00
 -0.8000000      0.0000000E+00
 -0.7600000      0.0000000E+00
 -0.7200000      0.0000000E+00
 -0.6800000      0.0000000E+00
 -0.6400000      0.0000000E+00
 -0.6000000      0.0000000E+00
 -0.5600000      0.0000000E+00
 -0.5200000      0.0000000E+00
 -0.4800000      0.0000000E+00
 -0.4400000      0.0000000E+00
 -0.4000000      0.0000000E+00
 -0.3600000      0.0000000E+00
 -0.3200000      0.0000000E+00
 -0.2800000      0.0000000E+00
 -0.2400000      0.0000000E+00
 -0.2000000      0.0000000E+00
 -0.1600000      0.0000000E+00
 -0.1200000      0.0000000E+00
 -7.9999998E-02  0.0000000E+00
 -3.9999999E-02  0.0000000E+00
  8.3266727E-17  0.0000000E+00
  3.9999999E-02  0.0000000E+00
  7.9999998E-02  0.0000000E+00
  0.1200000      0.0000000E+00
  0.1600000      0.0000000E+00
  0.2000000      0.0000000E+00
  0.2400000      0.0000000E+00
  0.2800000      0.0000000E+00
  0.3200000      0.0000000E+00
  0.3600000      0.0000000E+00
  0.4000000      0.0000000E+00
  0.4400000      0.0000000E+00
  0.4800000      0.0000000E+00
  0.5200000      0.0000000E+00
  0.5600000      0.0000000E+00
  0.6000000      0.0000000E+00
  0.6400000      0.0000000E+00
  0.6800000      0.0000000E+00
  0.7200000      0.0000000E+00
  0.7600000      0.0000000E+00
  0.8000000      0.0000000E+00
  0.8400000      0.0000000E+00
  0.8800000      0.0000000E+00
  0.9200000      0.0000000E+00
  0.9600000      0.0000000E+00
   1.000000      0.0000000E+00
   1.040000      0.0000000E+00
   1.080000      0.0000000E+00
   1.120000      0.0000000E+00
   1.160000      0.0000000E+00
   1.200000      0.0000000E+00
   1.240000      0.0000000E+00
   1.280000      0.0000000E+00
   1.320000      0.0000000E+00
   1.360000      0.0000000E+00
   1.400000      0.0000000E+00
   1.440000      0.0000000E+00
   1.480000      0.0000000E+00
   1.520000      0.0000000E+00
   1.560000      0.0000000E+00
   1.600000      0.0000000E+00
   1.640000      0.0000000E+00
   1.680000      0.0000000E+00
   1.720000      0.0000000E+00
   1.760000      0.0000000E+00
   1.800000      0.0000000E+00
   1.840000      0.0000000E+00
   1.880000      0.0000000E+00
   1.920000      0.0000000E+00
   1.960000      0.0000000E+00
   2.000000      0.0000000E+00
   2.040000      0.0000000E+00
   2.080000      0.0000000E+00
   2.120000      0.0000000E+00
   2.160000      0.0000000E+00
   2.200000      0.0000000E+00
   2.240000      0.0000000E+00
   2.280000      0.0000000E+00
   2.320000      0.0000000E+00
   2.360000      0.0000000E+00
   2.400000      0.0000000E+00
   2.440000      0.0000000E+00
   2.480000      0.0000000E+00
   2.520000      0.0000000E+00
   2.560000      0.0000000E+00
   2.600000      0.0000000E+00
   2.640000      0.0000000E+00
   2.680000      0.0000000E+00
   2.720000      0.0000000E+00
   2.760000      0.0000000E+00
   2.800000      0.0000000E+00
   2.840000      0.0000000E+00
   2.880000      0.0000000E+00
   2.920000      0.0000000E+00
   2.960000      0.0000000E+00
   3.000000      0.0000000E+00
   3.040000      0.0000000E+00
   3.080000      0.0000000E+00
   3.120000      0.0000000E+00
   3.160000      0.0000000E+00
   3.200000      0.0000000E+00
   3.240000      0.0000000E+00
   3.280000      0.0000000E+00
   3.320000      0.0000000E+00
   3.360000      0.0000000E+00
   3.400000      0.0000000E+00
   3.440000      0.0000000E+00
   3.480000      0.0000000E+00
   3.520000      0.0000000E+00
   3.560000      0.0000000E+00
   3.600000      0.0000000E+00
   3.640000      0.0000000E+00
   3.680000      0.0000000E+00
   3.720000      0.0000000E+00
   3.760000      0.0000000E+00
   3.800000      0.0000000E+00
   3.840000      0.0000000E+00
   3.880000      0.0000000E+00
   3.920000      0.0000000E+00
   3.960000      0.0000000E+00
   4.000000      0.0000000E+00
   4.040000      0.0000000E+00
   4.080000      0.0000000E+00
   4.120000      0.0000000E+00
   4.160000      0.0000000E+00
   4.200000      0.0000000E+00
   4.240000      0.0000000E+00
   4.280000      0.0000000E+00
   4.320000      0.0000000E+00
   4.360000      0.0000000E+00
   4.400000      0.0000000E+00
   4.440000      0.0000000E+00
   4.480000      0.0000000E+00
   4.520000      0.0000000E+00
   4.560000      0.0000000E+00
   4.600000      0.0000000E+00
   4.640000      0.0000000E+00
   4.680000      0.0000000E+00
   4.720000      0.0000000E+00
   4.760000      0.0000000E+00
   4.800000      0.0000000E+00
   4.840000      0.0000000E+00
   4.880000      0.0000000E+00
   4.920000      0.0000000E+00
   4.960000      0.0000000E+00
   5.000000      0.0000000E+00
   5.040000      0.0000000E+00
   5.080000      0.0000000E+00
   5.120000      0.0000000E+00
   5.160000      0.0000000E+00
   5.200000      0.0000000E+00
   5.240000      0.0000000E+00
   5.280000      0.0000000E+00
   5.320000      0.0000000E+00
   5.360000      0.0000000E+00
   5.400000      0.0000000E+00
   5.440000      0.0000000E+00
   5.480000      0.0000000E+00
   5.520000      0.0000000E+00
   5.560000      0.0000000E+00
   5.600000      0.0000000E+00
   5.640000      0.0000000E+00
   5.680000      0.0000000E+00
   5.720000      0.0000000E+00
   5.760000      0.0000000E+00
   5.800000      0.0000000E+00
   5.840000      0.0000000E+00
   5.880000      0.0000000E+00
   5.920000      0.0000000E+00
   5.960000      0.0000000E+00
   6.000000      0.0000000E+00
   6.040000      0.0000000E+00
   6.080000      0.0000000E+00
   6.120000      0.0000000E+00
   6.160000      0.0000000E+00
   6.200000      0.0000000E+00
   6.240000      0.0000000E+00
   6.280000      0.0000000E+00
   6.320000      0.0000000E+00
   6.360000      0.0000000E+00
   6.400000      0.0000000E+00
   6.440000      0.0000000E+00
   6.480000      0.0000000E+00
   6.520000      0.0000000E+00
   6.560000      0.0000000E+00
   6.600000      0.0000000E+00
   6.640000      0.0000000E+00
   6.680000      0.0000000E+00
   6.720000      0.0000000E+00
   6.760000      0.0000000E+00
   6.800000      0.0000000E+00
   6.840000      0.0000000E+00
   6.880000      0.0000000E+00
   6.920000      0.0000000E+00
   6.960000      0.0000000E+00
   7.000000      0.0000000E+00
   7.040000      0.0000000E+00
   7.080000      0.0000000E+00
   7.120000      0.0000000E+00
   7.160000      0.0000000E+00
   7.200000      0.0000000E+00
   7.240000      0.0000000E+00
   7.280000      0.0000000E+00
   7.320000      0.0000000E+00
   7.360000      0.0000000E+00
   7.400000      0.0000000E+00
   7.440000      0.0000000E+00
   7.480000      0.0000000E+00
   7.520000      0.0000000E+00
   7.560000      0.0000000E+00
   7.600000      0.0000000E+00
   7.640000      0.0000000E+00
   7.680000      0.0000000E+00
   7.720000      0.0000000E+00
   7.760000      0.0000000E+00
   7.800000      0.0000000E+00
   7.840000      0.0000000E+00
   7.880000      0.0000000E+00
   7.920000      0.0000000E+00
   7.960000      0.0000000E+00
   8.000000      0.0000000E+00
   8.040000      0.0000000E+00
   8.080000      0.0000000E+00
   8.120000      0.0000000E+00
   8.160000      0.0000000E+00
   8.200000      0.0000000E+00
   8.240000      0.0000000E+00
   8.280000      0.0000000E+00
   8.320000      0.0000000E+00
   8.360000      0.0000000E+00
   8.400000      0.0000000E+00
   8.440000      0.0000000E+00
   8.480000      0.0000000E+00
   8.520000      0.0000000E+00
   8.560000      0.0000000E+00
   8.600000      0.0000000E+00
   8.640000      0.0000000E+00
   8.680000      0.0000000E+00
   8.720000      0.0000000E+00
   8.760000      0.0000000E+00
   8.800000      0.0000000E+00
   8.840000      0.0000000E+00
   8.880000      0.0000000E+00
   8.920000      0.0000000E+00
   8.960000      0.0000000E+00
   9.000000      0.0000000E+00
   9.040000      0.0000000E+00
   9.080000      0.0000000E+00
   9.120000      0.0000000E+00
   9.160000      0.0000000E+00
   9.200000      0.0000000E+00
   9.240000      0.0000000E+00
   9.280000      0.0000000E+00
   9.320000      0.0000000E+00
   9.360000      0.0000000E+00
   9.400000      0.0000000E+00
   9.440000      0.0000000E+00
   9.480000      0.0000000E+00
   9.520000      0.0000000E+00
   9.560000      0.0000000E+00
   9.600000      0.0000000E+00
   9.640000      0.0000000E+00
   9.680000      0.0000000E+00
   9.720000      0.0000000E+00
   9.760000      0.0000000E+00
   9.800000      0.0000000E+00
   9.840000      0.0000000E+00
   9.880000      0.0000000E+00
   9.920000      0.0000000E+00
   9.960000      0.0000000E+00
   10.00000      0.0000000E+00
   10.04000      0.0000000E+00
   10.08000      0.0000000E+00
   10.12000      0.0000000E+00
   10.16000      0.0000000E+00
   10.20000      0.0000000E+00
   10.24000      0.0000000E+00
   10.28000      0.0000000E+00
   10.32000      0.0000000E+00
   10.36000      0.0000000E+00
   10.40000      0.0000000E+00
   10.44000      0.0000000E+00
   10.48000      0.0000000E+00
   10.52000      0.0000000E+00
   10.56000      0.0000000E+00
   10.60000      0.0000000E+00
   10.64000      0.0000000E+00
   10.68000      0.0000000E+00
   10.72000      0.0000000E+00
   10.76000      0.0000000E+00
   10.80000      0.0000000E+00
   10.84000      0.0000000E+00
   10.88000      0.0000000E+00
   10.92000      0.0000000E+00
   10.96000      0.0000000E+00
   11.00000      0.0000000E+00
   11.04000      0.0000000E+00
   11.08000      0.0000000E+00
   11.12000      0.0000000E+00
   11.16000      0.0000000E+00
   11.20000      0.0000000E+00
   11.24000      0.0000000E+00
   11.28000      0.0000000E+00
   11.32000      0.0000000E+00
   11.36000      0.0000000E+00
   11.40000      0.0000000E+00
   11.44000      0.0000000E+00
   11.48000      0.0000000E+00
   11.52000      0.0000000E+00
   11.56000      0.0000000E+00
   11.60000      0.0000000E+00
   11.64000      0.0000000E+00
   11.68000      0.0000000E+00
   11.72000      0.0000000E+00
   11.76000      0.0000000E+00
   11.80000      0.0000000E+00
   11.84000      0.0000000E+00
   11.88000      0.0000000E+00
   11.92000      0.0000000E+00
   11.96000      0.0000000E+00
   12.00000      0.0000000E+00
   12.04000      0.0000000E+00
   12.08000      0.0000000E+00
   12.12000      0.0000000E+00
   12.16000      0.0000000E+00
   12.20000      0.0000000E+00
   12.24000      0.0000000E+00
   12.28000      0.0000000E+00
   12.32000      0.0000000E+00
   12.36000      0.0000000E+00
   12.40000      0.0000000E+00
   12.44000      0.0000000E+00
   12.48000      0.0000000E+00
   12.52000      0.0000000E+00
   12.56000      0.0000000E+00
   12.60000      0.0000000E+00
   12.64000      0.0000000E+00
   12.68000      0.0000000E+00
   12.72000      0.0000000E+00
   12.76000      0.0000000E+00
   12.80000      0.0000000E+00
   12.84000      0.0000000E+00
   12.88000      0.0000000E+00
   12.92000      0.0000000E+00
   12.96000      0.0000000E+00
   13.00000      0.0000000E+00
   13.04000      0.0000000E+00
   13.08000      0.0000000E+00
   13.12000      0.0000000E+00
   13.16000      0.0000000E+00
   13.20000      0.0000000E+00
   13.24000      0.0000000E+00
   13.28000      0.0000000E+00
   13.32000      0.0000000E+00
   13.36000      0.0000000E+00
   13.40000      0.0000000E+00
   13.44000      0.0000000E+00
   13.48000      0.0000000E+00
   13.52000      0.0000000E+00
   13.56000      0.0000000E+00
   13.60000      0.0000000E+00
   13.64000      0.0000000E+00
   13.68000      0.0000000E+00
   13.72000      0.0000000E+00
   13.76000      0.0000000E+00
   13.80000      0.0000000E+00
   13.84000      0.0000000E+00
   13.88000      0.0000000E+00
   13.92000      0.0000000E+00
   13.96000      0.0000000E+00
   14.00000      0.0000000E+00
   14.04000      0.0000000E+00
   14.08000      0.0000000E+00
   14.12000      0.0000000E+00
   14.16000      0.0000000E+00
   14.20000      0.0000000E+00
   14.24000      0.0000000E+00
   14.28000      0.0000000E+00
   14.32000      0.0000000E+00
   14.36000      0.0000000E+00
   14.40000      0.0000000E+00
   14.44000      0.0000000E+00
   14.48000      0.0000000E+00
   14.52000      0.0000000E+00
   14.56000      0.0000000E+00
   14.60000      0.0000000E+00
   14.64000      0.0000000E+00
   14.68000      0.0000000E+00
   14.72000      0.0000000E+00
   14.76000      0.0000000E+00
   14.80000      0.0000000E+00
   14.84000      0.0000000E+00
   14.88000      0.0000000E+00
   14.92000      0.0000000E+00
   14.96000      0.0000000E+00
   15.00000      0.0000000E+00
   15.04000      0.0000000E+00
   15.08000      0.0000000E+00
   15.12000      0.0000000E+00
   15.16000      0.0000000E+00
   15.20000      0.0000000E+00
   15.24000      0.0000000E+00
   15.28000      0.0000000E+00
   15.32000      0.0000000E+00
   15.36000      0.0000000E+00
   15.40000      0.0000000E+00
   15.44000      0.0000000E+00
   15.48000      0.0000000E+00
   15.52000      0.0000000E+00
   15.56000      0.0000000E+00
   15.60000      0.0000000E+00
   15.64000      0.0000000E+00
   15.68000      0.0000000E+00
   15.72000      0.0000000E+00
   15.76000      0.0000000E+00
   15.80000      0.0000000E+00
   15.84000      0.0000000E+00
   15.88000      0.0000000E+00
   15.92000      0.0000000E+00
   15.96000      0.0000000E+00
   16.00000      0.0000000E+00
   16.04000      0.0000000E+00
   16.08000      0.0000000E+00
   16.12000      0.0000000E+00
   16.16000      0.0000000E+00
   16.20000      0.0000000E+00
   16.24000      0.0000000E+00
   16.28000      0.0000000E+00
   16.32000      0.0000000E+00
   16.36000      0.0000000E+00
   16.40000      0.0000000E+00
   16.44000      0.0000000E+00
   16.48000      0.0000000E+00
   16.52000      0.0000000E+00
   16.56000      0.0000000E+00
   16.60000      0.0000000E+00
   16.64000      0.0000000E+00
   16.68000      0.0000000E+00
   16.72000      0.0000000E+00
   16.76000      0.0000000E+00
   16.80000      0.0000000E+00
   16.84000      0.0000000E+00
   16.88000      0.0000000E+00
   16.92000      0.0000000E+00
   16.96000      0.0000000E+00
   17.00000      0.0000000E+00
   17.04000      0.0000000E+00
   17.08000      0.0000000E+00
   17.12000      0.0000000E+00
   17.16000      0.0000000E+00
   17.20000      0.0000000E+00
   17.24000      0.0000000E+00
   17.28000      0.0000000E+00
   17.32000      0.0000000E+00
   17.36000      0.0000000E+00
   17.40000      0.0000000E+00
   17.44000      0.0000000E+00
   17.48000      0.0000000E+00
   17.52000      0.0000000E+00
   17.56000      0.0000000E+00
   17.60000      0.0000000E+00
   17.64000      0.0000000E+00
   17.68000      0.0000000E+00
   17.72000      0.0000000E+00
   17.76000      0.0000000E+00
   17.80000      0.0000000E+00
   17.84000      0.0000000E+00
   17.88000      0.0000000E+00
   17.92000      0.0000000E+00
   17.96000      0.0000000E+00
   18.00000      0.0000000E+00
   18.04000      0.0000000E+00
   18.08000      0.0000000E+00
   18.12000      0.0000000E+00
   18.16000      0.0000000E+00
   18.20000      0.0000000E+00
   18.24000      0.0000000E+00
   18.28000      0.0000000E+00
   18.32000      0.0000000E+00
   18.36000      0.0000000E+00
   18.40000      0.0000000E+00
   18.44000      0.0000000E+00
   18.48000      0.0000000E+00
   18.52000      0.0000000E+00
   18.56000      0.0000000E+00
   18.60000      0.0000000E+00
   18.64000      0.0000000E+00
   18.68000      0.0000000E+00
   18.72000      0.0000000E+00
   18.76000      0.0000000E+00
   18.80000      0.0000000E+00
   18.84000      0.0000000E+00
   18.88000      0.0000000E+00
   18.92000      0.0000000E+00
   18.96000      0.0000000E+00
   19.00000      0.0000000E+00
   19.04000      0.0000000E+00
   19.08000      0.0000000E+00
   19.12000      0.0000000E+00
   19.16000      0.0000000E+00
   19.20000      0.0000000E+00
   19.24000      0.0000000E+00
   19.28000      0.0000000E+00
   19.32000      0.0000000E+00
   19.36000      0.0000000E+00
   19.40000      0.0000000E+00
   19.44000      0.0000000E+00
   19.48000      0.0000000E+00
   19.52000      0.0000000E+00
   19.56000      0.0000000E+00
   19.60000      0.0000000E+00
   19.64000      0.0000000E+00
   19.68000      0.0000000E+00
   19.72000      0.0000000E+00
   19.76000      0.0000000E+00
   19.80000      0.0000000E+00
   19.84000      0.0000000E+00
   19.88000      0.0000000E+00
   19.92000      0.0000000E+00
   19.96000      0.0000000E+00
   20.00000      0.0000000E+00
   20.04000      0.0000000E+00
   20.08000      0.0000000E+00
   20.12000      0.0000000E+00
   20.16000      0.0000000E+00
   20.20000      0.0000000E+00
   20.24000      0.0000000E+00
   20.28000      0.0000000E+00
   20.32000      0.0000000E+00
   20.36000      0.0000000E+00
   20.40000      0.0000000E+00
   20.44000      0.0000000E+00
   20.48000      0.0000000E+00
   20.52000      0.0000000E+00
   20.56000      0.0000000E+00
   20.60000      0.0000000E+00
   20.64000      0.0000000E+00
   20.68000      0.0000000E+00
   20.72000      0.0000000E+00
   20.76000      0.0000000E+00
   20.80000      0.0000000E+00
   20.84000      0.0000000E+00
   20.88000      0.0000000E+00
   20.92000      0.0000000E+00
   20.96000      0.0000000E+00
   21.00000      0.0000000E+00
   21.04000      0.0000000E+00
   21.08000      0.0000000E+00
   21.12000      0.0000000E+00
   21.16000      0.0000000E+00
   21.20000      0.0000000E+00
   21.24000      0.0000000E+00
   21.28000      0.0000000E+00
   21.32000      0.0000000E+00
   21.36000      0.0000000E+00
   21.40000      0.0000000E+00
   21.44000      0.0000000E+00
   21.48000      0.0000000E+00
   21.52000      0.0000000E+00
   21.56000      0.0000000E+00
   21.60000      0.0000000E+00
   21.64000      0.0000000E+00
   21.68000      0.0000000E+00
   21.72000      0.0000000E+00
   21.76000      0.0000000E+00
   21.80000      0.0000000E+00
   21.84000      0.0000000E+00
   21.88000      0.0000000E+00
   21.92000      0.0000000E+00
   21.96000      0.0000000E+00
   22.00000      0.0000000E+00
   22.04000      0.0000000E+00
   22.08000      0.0000000E+00
   22.12000      0.0000000E+00
   22.16000      0.0000000E+00
   22.20000      0.0000000E+00
   22.24000      0.0000000E+00
   22.28000      0.0000000E+00
   22.32000      0.0000000E+00
   22.36000      0.0000000E+00
   22.40000      0.0000000E+00
   22.44000      0.0000000E+00
   22.48000      0.0000000E+00
   22.52000      0.0000000E+00
   22.56000      0.0000000E+00
   22.60000      0.0000000E+00
   22.64000      0.0000000E+00
   22.68000      0.0000000E+00
   22.72000      0.0000000E+00
   22.76000      0.0000000E+00
   22.80000      0.0000000E+00
   22.84000      0.0000000E+00
   22.88000      0.0000000E+00
   22.92000      0.0000000E+00
   22.96000      0.0000000E+00
   23.00000      0.0000000E+00
   23.04000      0.0000000E+00
   23.08000      0.0000000E+00
   23.12000      0.0000000E+00
   23.16000      0.0000000E+00
   23.20000      0.0000000E+00
   23.24000      0.0000000E+00
   23.28000      0.0000000E+00
   23.32000      0.0000000E+00
   23.36000      0.0000000E+00
   23.40000      0.0000000E+00
   23.44000      0.0000000E+00
   23.48000      0.0000000E+00
   23.52000      0.0000000E+00
   23.56000      0.0000000E+00
   23.60000      0.0000000E+00
   23.64000      0.0000000E+00
   23.68000      0.0000000E+00
   23.72000      0.0000000E+00
   23.76000      0.0000000E+00
   23.80000      0.0000000E+00
   23.84000      0.0000000E+00
   23.88000      0.0000000E+00
   23.92000      0.0000000E+00
   23.96000     -2.3227623E-38
   24.00000     -4.7217536E-38
   24.04000     -5.7269521E-38
   24.08000     -3.7797935E-38
   24.12000      1.1778199E-38
   24.16000      6.6917725E-38
   24.20000      1.1247134E-37
   24.24000      1.0200623E-37
   24.28000      6.5187648E-38
   24.32000      0.0000000E+00
   24.36000      0.0000000E+00
   24.40000      0.0000000E+00
   24.44000      7.9642383E-38
   24.48000      2.3085525E-37
   24.52000      4.2821811E-37
   24.56000      6.1229174E-37
   24.60000      5.0818786E-37
   24.64000      3.4727905E-37
   24.68000      1.5804065E-37
   24.72000      1.5721227E-37
   24.76000      4.7115865E-37
   24.80000      1.2255475E-36
   24.84000      1.8957350E-36
   24.88000      2.2076791E-36
   24.92000      2.0803784E-36
   24.96000      1.2490188E-36
   25.00000      2.1608386E-37
   25.04000     -4.7022613E-37
   25.08000     -2.0614038E-37
   25.12000      4.7416151E-37
   25.16000      5.9621160E-37
   25.20000     -4.6180766E-37
   25.24000     -2.3483321E-36
   25.28000     -4.6373130E-36
   25.32000     -5.9988388E-36
   25.36000     -6.0370711E-36
   25.40000     -4.2659672E-36
   25.44000     -1.4456713E-36
   25.48000      2.1955528E-36
   25.52000      4.7448273E-36
   25.56000      5.0390919E-36
   25.60000      4.7004356E-36
   25.64000      4.8389820E-36
   25.68000      5.8458409E-36
   25.72000      6.6261370E-36
   25.76000      6.3601240E-36
   25.80000      3.5589430E-36
   25.84000     -1.8219893E-36
   25.88000     -9.4235846E-36
   25.92000     -1.7170546E-35
   25.96000     -2.2492832E-35
   26.00000     -2.4156730E-35
   26.04000     -2.2400902E-35
   26.08000     -1.7790626E-35
   26.12000     -1.1249656E-35
   26.16000     -2.6042511E-36
   26.20000      9.4321827E-36
   26.24000      2.5514277E-35
   26.28000      4.5251246E-35
   26.32000      6.5441756E-35
   26.36000      7.9812255E-35
   26.40000      8.0353694E-35
   26.44000      6.0653402E-35
   26.48000      1.8192775E-35
   26.52000     -4.3301315E-35
   26.56000     -1.1301404E-34
   26.60000     -1.7557754E-34
   26.64000     -2.1289787E-34
   26.68000     -2.0905003E-34
   26.72000     -1.5423178E-34
   26.76000     -4.8289715E-35
   26.80000      9.7463944E-35
   26.84000      2.5974205E-34
   26.88000      4.0563743E-34
   26.92000      4.9783986E-34
   26.96000      5.0151704E-34
   27.00000      3.9248911E-34
   27.04000      1.6575742E-34
   27.08000     -1.5832198E-34
   27.12000     -5.3226260E-34
   27.16000     -8.8506762E-34
   27.20000     -1.1322072E-33
   27.24000     -1.1908559E-33
   27.28000     -9.9890176E-34
   27.32000     -5.3372807E-34
   27.36000      1.7271418E-34
   27.40000      1.0267106E-33
   27.44000      1.8773446E-33
   27.48000      2.5348075E-33
   27.52000      2.8022492E-33
   27.56000      2.5177717E-33
   27.60000      1.5998682E-33
   27.64000      8.6893036E-35
   27.68000     -1.8401433E-33
   27.72000     -3.8610592E-33
   27.76000     -5.5523414E-33
   27.80000     -6.4553279E-33
   27.84000     -6.1694072E-33
   27.88000     -4.4554674E-33
   27.92000     -1.3290518E-33
   27.96000      2.8797878E-33
   28.00000      7.5211155E-33
   28.04000      1.1688494E-32
   28.08000      1.4353922E-32
   28.12000      1.4562402E-32
   28.16000      1.1658217E-32
   28.20000      5.5014855E-33
   28.24000     -3.3746448E-33
   28.28000     -1.3715097E-32
   28.32000     -2.3639344E-32
   28.36000     -3.0897660E-32
   28.40000     -3.3269858E-32
   28.44000     -2.9053827E-32
   28.48000     -1.7559036E-32
   28.52000      5.0122891E-34
   28.56000      2.2827900E-32
   28.60000      4.5653565E-32
   28.64000      6.4204297E-32
   28.68000      7.3487052E-32
   28.72000      6.9309469E-32
   28.76000      4.9366878E-32
   28.80000      1.4178927E-32
   28.84000     -3.2360102E-32
   28.88000     -8.3024825E-32
   28.92000     -1.2802422E-31
   28.96000     -1.5649181E-31
   29.00000     -1.5854867E-31
   29.04000     -1.2762965E-31
   29.08000     -6.2637286E-32
   29.12000      3.0574585E-32
   29.16000      1.3885513E-31
   29.20000      2.4287853E-31
   29.24000      3.1982535E-31
   29.28000      3.4740475E-31
   29.32000      3.0866606E-31
   29.36000      1.9675871E-31
   29.40000      1.8624358E-32
   29.44000     -2.0339233E-31
   29.48000     -4.3281227E-31
   29.52000     -6.2353581E-31
   29.56000     -7.2736210E-31
   29.60000     -7.0359224E-31
   29.64000     -5.2915438E-31
   29.68000     -2.0724278E-31
   29.72000      2.2765879E-31
   29.76000      7.1019405E-31
   29.80000      1.1510715E-30
   29.84000      1.4504611E-30
   29.88000      1.5164342E-30
   29.92000      1.2856692E-30
   29.96000      7.4259744E-31
   30.00000     -6.7322225E-32
   30.04000     -1.0341792E-30
   30.08000     -1.9928062E-30
   30.12000     -2.7453050E-30
   30.16000     -3.0949958E-30
   30.20000     -2.8871217E-30
   30.24000     -2.0492735E-30
   30.28000     -6.2313111E-31
   30.32000      1.2208085E-30
   30.36000      3.1920066E-30
   30.40000      4.9151079E-30
   30.44000      5.9896948E-30
   30.48000      6.0671789E-30
   30.52000      4.9324593E-30
   30.56000      2.5744912E-30
   30.60000     -7.7093880E-31
   30.64000     -4.6205181E-30
   30.68000     -8.2932319E-30
   30.72000     -1.1010425E-29
   30.76000     -1.2035412E-29
   30.80000     -1.0831747E-29
   30.84000     -7.2113716E-30
   30.88000     -1.4402986E-30
   30.92000      5.7279432E-30
   30.96000      1.3111918E-29
   31.00000      1.9260565E-29
   31.04000      2.2696708E-29
   31.08000      2.2212280E-29
   31.12000      1.7164723E-29
   31.16000      7.7143914E-30
   31.20000     -5.0568086E-30
   31.24000     -1.9192000E-29
   31.28000     -3.2092701E-29
   31.32000     -4.0926330E-29
   31.36000     -4.3157267E-29
   31.40000     -3.7116206E-29
   31.44000     -2.2498813E-29
   31.48000     -6.7913805E-31
   31.52000      2.5260353E-29
   31.56000      5.0840356E-29
   31.60000      7.0837058E-29
   31.64000      8.0204949E-29
   31.68000      7.5131430E-29
   31.72000      5.4032777E-29
   31.76000      1.8278050E-29
   31.80000     -2.7555580E-29
   31.84000     -7.6032554E-29
   31.88000     -1.1785176E-28
   31.92000     -1.4339600E-28
   31.96000     -1.4462307E-28
   32.00000     -1.1697470E-28
   32.04000     -6.0919066E-29
   32.08000      1.7252781E-29
   32.12000      1.0567018E-28
   32.16000      1.8830132E-28
   32.20000      2.4746645E-28
   32.24000      2.6712810E-28
   32.28000      2.3642735E-28
   32.32000      1.5279004E-28
   32.36000      2.3896331E-29
   32.40000     -1.3208502E-28
   32.44000     -2.8835028E-28
   32.48000     -4.1338931E-28
   32.52000     -4.7655302E-28
   32.56000     -4.5441421E-28
   32.60000     -3.3676662E-28
   32.64000     -1.3098050E-28
   32.68000      1.3645498E-28
   32.72000      4.2200399E-28
   32.76000      6.7097406E-28
   32.80000      8.2668819E-28
   32.84000      8.4164111E-28
   32.88000      6.8871476E-28
   32.92000      3.7018451E-28
   32.96000     -7.7692369E-29
   33.00000     -5.8620160E-28
   33.04000     -1.0625473E-27
   33.08000     -1.4045569E-27
   33.12000     -1.5198113E-27
   33.16000     -1.3460797E-27
   33.20000     -8.6912712E-28
   33.24000     -1.3383441E-28
   33.28000      7.5477377E-28
   33.32000      1.6425297E-27
   33.36000      2.3489764E-27
   33.40000      2.6994695E-27
   33.44000      2.5615922E-27
   33.48000      1.8792498E-27
   33.52000      6.9712540E-28
   33.56000     -8.3108788E-28
   33.60000     -2.4551250E-27
   33.64000     -3.8622591E-27
   33.68000     -4.7298736E-27
   33.72000     -4.7890239E-27
   33.76000     -3.8880007E-27
   33.80000     -2.0430758E-27
   33.84000      5.3601298E-28
   33.88000      3.4552501E-27
   33.92000      6.1842454E-27
   33.96000      8.1397773E-27
   34.00000      8.7941805E-27
   34.04000      7.7910006E-27
   34.08000      5.0458895E-27
   34.12000      8.0995263E-28
   34.16000     -4.3234558E-27
   34.20000     -9.4794372E-27
   34.24000     -1.3628928E-26
   34.28000     -1.5768481E-26
   34.32000     -1.5125278E-26
   34.36000     -1.1350637E-26
   34.40000     -4.6614095E-27
   34.44000      4.1076361E-27
   34.48000      1.3565782E-26
   34.52000      2.1949431E-26
   34.56000      2.7409977E-26
   34.60000      2.8366729E-26
   34.64000      2.3865545E-26